Program Version,EnergyPlus, Version 8.9.0-eba93e8e1b, YMD=2018.11.01 15:43
1,5,Environment Title[],Latitude[deg],Longitude[deg],Time Zone[],Elevation[m]
2,8,Day of Simulation[],Month[],Day of Month[],DST Indicator[1=yes 0=no],Hour[],StartMinute[],EndMinute[],DayType
3,5,Cumulative Day of Simulation[],Month[],Day of Month[],DST Indicator[1=yes 0=no],DayType  ! When Daily Report Variables Requested
4,2,Cumulative Days of Simulation[],Month[]  ! When Monthly Report Variables Requested
5,1,Cumulative Days of Simulation[] ! When Run Period Report Variables Requested
6,1,Calendar Year of Simulation[] ! When Annual Report Variables Requested
7,9,Environment,Site Outdoor Air Drybulb Temperature [C] !Monthly [Value,Min,Day,Hour,Minute,Max,Day,Hour,Minute]
8,1,Environment,Site Outdoor Air Wetbulb Temperature [C] !TimeStep
357,1,ATTIC ZN,Zone Air Temperature [C] !Hourly
358,7,ATTIC ZN,Zone Air Relative Humidity [%] !Daily [Value,Min,Hour,Minute,Max,Hour,Minute]
397,1,CORE_ZN ZN,Zone Air Temperature [C] !Hourly
398,7,CORE_ZN ZN,Zone Air Relative Humidity [%] !Daily [Value,Min,Hour,Minute,Max,Hour,Minute]
437,1,PERIMETER_ZN_1 ZN,Zone Air Temperature [C] !Hourly
438,7,PERIMETER_ZN_1 ZN,Zone Air Relative Humidity [%] !Daily [Value,Min,Hour,Minute,Max,Hour,Minute]
477,1,PERIMETER_ZN_2 ZN,Zone Air Temperature [C] !Hourly
478,7,PERIMETER_ZN_2 ZN,Zone Air Relative Humidity [%] !Daily [Value,Min,Hour,Minute,Max,Hour,Minute]
517,1,PERIMETER_ZN_3 ZN,Zone Air Temperature [C] !Hourly
518,7,PERIMETER_ZN_3 ZN,Zone Air Relative Humidity [%] !Daily [Value,Min,Hour,Minute,Max,Hour,Minute]
557,1,PERIMETER_ZN_4 ZN,Zone Air Temperature [C] !Hourly
558,7,PERIMETER_ZN_4 ZN,Zone Air Relative Humidity [%] !Daily [Value,Min,Hour,Minute,Max,Hour,Minute]
10,1,Electricity:Facility [J] !TimeStep
708,1,DistrictCooling:Facility [J] !TimeStep
671,1,DistrictHeating:Facility [J] !TimeStep
End of Data Dictionary
1,WHITEHORSE INTL AP ANN CLG .4% CONDNS DB=>MWB,  60.71,-135.07,  -8.00, 706.20
2,1, 7,21, 0, 1, 0.00,10.00,SummerDesignDay
8,10.574884373812747
10,588883.2432939032
671,0.0
708,0.0
2,1, 7,21, 0, 1,10.00,20.00,SummerDesignDay
8,10.528245252751797
10,588883.2432939032
671,0.0
708,0.0
2,1, 7,21, 0, 1,20.00,30.00,SummerDesignDay
8,10.481526817557933
10,588883.2432939032
671,0.0
708,0.0
2,1, 7,21, 0, 1,30.00,40.00,SummerDesignDay
8,10.43474672761587
10,588883.2432939032
671,0.0
708,0.0
2,1, 7,21, 0, 1,40.00,50.00,SummerDesignDay
8,10.387884178660615
10,588883.2432939032
671,0.0
708,0.0
2,1, 7,21, 0, 1,50.00,60.00,SummerDesignDay
8,10.340945439918965
10,588883.2432939032
671,0.0
708,0.0
2,1, 7,21, 0, 1, 0.00,60.00,SummerDesignDay
357,24.605647452303616
397,24.057617122769626
437,24.148236797675535
477,24.108005644659145
517,23.96842597048649
557,24.735057171832229
2,1, 7,21, 0, 2, 0.00,10.00,SummerDesignDay
8,10.309610812103998
10,588883.2432939032
671,0.0
708,0.0
2,1, 7,21, 0, 2,10.00,20.00,SummerDesignDay
8,10.278242517360706
10,588883.2432939032
671,0.0
708,0.0
2,1, 7,21, 0, 2,20.00,30.00,SummerDesignDay
8,10.246840178286885
10,588883.2432939032
671,0.0
708,0.0
2,1, 7,21, 0, 2,30.00,40.00,SummerDesignDay
8,10.215403920831856
10,588883.2432939032
671,0.0
708,0.0
2,1, 7,21, 0, 2,40.00,50.00,SummerDesignDay
8,10.183930399115332
10,588883.2432939032
671,0.0
708,0.0
2,1, 7,21, 0, 2,50.00,60.00,SummerDesignDay
8,10.152425746609186
10,588883.2432939032
671,0.0
708,0.0
2,1, 7,21, 0, 2, 0.00,60.00,SummerDesignDay
357,24.38129121697037
397,23.832540779463984
437,23.87004639574772
477,23.83886030558911
517,23.706991505807168
557,24.41394828800399
2,1, 7,21, 0, 3, 0.00,10.00,SummerDesignDay
8,10.128776674788054
10,588883.2432939032
671,0.0
708,0.0
2,1, 7,21, 0, 3,10.00,20.00,SummerDesignDay
8,10.105105152561754
10,588883.2432939032
671,0.0
708,0.0
2,1, 7,21, 0, 3,20.00,30.00,SummerDesignDay
8,10.081417734849238
10,588883.2432939032
671,0.0
708,0.0
2,1, 7,21, 0, 3,30.00,40.00,SummerDesignDay
8,10.057707612553946
10,588883.2432939032
671,0.0
708,0.0
2,1, 7,21, 0, 3,40.00,50.00,SummerDesignDay
8,10.033981692635047
10,588883.2432939032
671,0.0
708,0.0
2,1, 7,21, 0, 3,50.00,60.00,SummerDesignDay
8,10.010232880593606
10,588883.2432939032
671,0.0
708,0.0
2,1, 7,21, 0, 3, 0.00,60.00,SummerDesignDay
357,24.168064723369068
397,23.63381808881051
437,23.621796502328399
477,23.59854090173431
517,23.477815801807144
557,24.13031901477683
2,1, 7,21, 0, 4, 0.00,10.00,SummerDesignDay
8,9.986465162559983
10,588883.2432939032
671,0.0
708,0.0
2,1, 7,21, 0, 4,10.00,20.00,SummerDesignDay
8,9.962680941033236
10,588883.2432939032
671,0.0
708,0.0
2,1, 7,21, 0, 4,20.00,30.00,SummerDesignDay
8,9.938874376005396
10,588883.2432939032
671,0.0
708,0.0
2,1, 7,21, 0, 4,30.00,40.00,SummerDesignDay
8,9.915051561908128
10,588883.2432939032
671,0.0
708,0.0
2,1, 7,21, 0, 4,40.00,50.00,SummerDesignDay
8,9.891205810354297
10,588883.2432939032
671,0.0
708,0.0
2,1, 7,21, 0, 4,50.00,60.00,SummerDesignDay
8,9.867344199745029
10,588883.2432939032
671,0.0
708,0.0
2,1, 7,21, 0, 4, 0.00,60.00,SummerDesignDay
357,23.960383402613748
397,23.445881692352616
437,23.388079440751985
477,23.37207176995413
517,23.262349809519518
557,23.86461788860204
2,1, 7,21, 0, 5, 0.00,10.00,SummerDesignDay
8,9.851424645587466
10,588883.2432939032
671,0.0
708,0.0
2,1, 7,21, 0, 5,10.00,20.00,SummerDesignDay
8,9.835492842713276
10,588883.2432939032
671,0.0
708,0.0
2,1, 7,21, 0, 5,20.00,30.00,SummerDesignDay
8,9.819556028129357
10,588883.2432939032
671,0.0
708,0.0
2,1, 7,21, 0, 5,30.00,40.00,SummerDesignDay
8,9.80361009819741
10,588883.2432939032
671,0.0
708,0.0
2,1, 7,21, 0, 5,40.00,50.00,SummerDesignDay
8,9.787655819020637
10,588883.2432939032
671,0.0
708,0.0
2,1, 7,21, 0, 5,50.00,60.00,SummerDesignDay
8,9.77169266473284
10,588883.2432939032
671,0.0
708,0.0
2,1, 7,21, 0, 5, 0.00,60.00,SummerDesignDay
357,23.816524118861027
397,23.278015584651418
437,23.189687071560248
477,23.36568779552927
517,23.22527054567294
557,23.63828365545315
2,1, 7,21, 0, 6, 0.00,10.00,SummerDesignDay
8,9.787655819020637
10,588883.2432939032
671,0.0
708,0.0
2,1, 7,21, 0, 6,10.00,20.00,SummerDesignDay
8,9.80361009819741
10,588883.2432939032
671,0.0
708,0.0
2,1, 7,21, 0, 6,20.00,30.00,SummerDesignDay
8,9.819556028129357
10,588883.2432939032
671,0.0
708,0.0
2,1, 7,21, 0, 6,30.00,40.00,SummerDesignDay
8,9.835492842713276
10,588883.2432939032
671,0.0
708,0.0
2,1, 7,21, 0, 6,40.00,50.00,SummerDesignDay
8,9.851424645587466
10,588883.2432939032
671,0.0
708,0.0
2,1, 7,21, 0, 6,50.00,60.00,SummerDesignDay
8,9.867344199745029
10,588883.2432939032
671,0.0
708,0.0
2,1, 7,21, 0, 6, 0.00,60.00,SummerDesignDay
357,23.9042535288566
397,23.271904338443308
437,23.16040303745441
477,24.438062638344495
517,23.673643257669029
557,23.592589334297974
2,1, 7,21, 0, 7, 0.00,10.00,SummerDesignDay
8,9.922993402171457
10,588883.2432939032
671,0.0
708,657427.0290546764
2,1, 7,21, 0, 7,10.00,20.00,SummerDesignDay
8,9.978540284213477
10,588883.2432939032
671,0.0
708,181782.68685916026
2,1, 7,21, 0, 7,20.00,30.00,SummerDesignDay
8,10.033981692635047
10,588883.2432939032
671,0.0
708,686821.1026033239
2,1, 7,21, 0, 7,30.00,40.00,SummerDesignDay
8,10.089314673383278
10,588883.2432939032
671,0.0
708,646652.48673347
2,1, 7,21, 0, 7,40.00,50.00,SummerDesignDay
8,10.144545943774915
10,588883.2432939032
671,0.0
708,714771.5761242866
2,1, 7,21, 0, 7,50.00,60.00,SummerDesignDay
8,10.199672942686155
10,588883.2432939032
671,0.0
708,776937.3396704603
2,1, 7,21, 0, 7, 0.00,60.00,SummerDesignDay
357,24.122345288363296
397,23.371468497567205
437,23.311908132918775
477,23.990631796687678
517,23.771162570468463
557,23.65924639856389
2,1, 7,21, 0, 8, 0.00,10.00,SummerDesignDay
8,10.333113532252485
10,1462359.638864261
671,0.0
708,904413.9026728927
2,1, 7,21, 0, 8,10.00,20.00,SummerDesignDay
8,10.465946348121124
10,1462359.638864261
671,0.0
708,974633.4096356325
2,1, 7,21, 0, 8,20.00,30.00,SummerDesignDay
8,10.598165962627448
10,1462359.638864261
671,0.0
708,1070386.3686787985
2,1, 7,21, 0, 8,30.00,40.00,SummerDesignDay
8,10.729796573137922
10,1462359.638864261
671,0.0
708,1194789.0823409763
2,1, 7,21, 0, 8,40.00,50.00,SummerDesignDay
8,10.860814646787793
10,1462359.638864261
671,0.0
708,1247472.4576992968
2,1, 7,21, 0, 8,50.00,60.00,SummerDesignDay
8,10.991252164970467
10,1462359.638864261
671,0.0
708,1459444.678864463
2,1, 7,21, 0, 8, 0.00,60.00,SummerDesignDay
357,24.52290390174895
397,23.825293075218995
437,23.826182876996059
477,23.999999999666604
517,23.95498566806585
557,23.95001704243874
2,1, 7,21, 0, 9, 0.00,10.00,SummerDesignDay
8,11.136328759361359
10,4786172.030522507
671,0.0
708,3445777.172785501
2,1, 7,21, 0, 9,10.00,20.00,SummerDesignDay
8,11.280673139948592
10,4786172.030522507
671,0.0
708,3756554.749001771
2,1, 7,21, 0, 9,20.00,30.00,SummerDesignDay
8,11.42429076444808
10,4786172.030522507
671,0.0
708,3947190.862322149
2,1, 7,21, 0, 9,30.00,40.00,SummerDesignDay
8,11.567187263625366
10,4786172.030522507
671,0.0
708,4121102.5255535377
2,1, 7,21, 0, 9,40.00,50.00,SummerDesignDay
8,11.709358464730734
10,4786172.030522507
671,0.0
708,4281635.77994777
2,1, 7,21, 0, 9,50.00,60.00,SummerDesignDay
8,11.850829069928455
10,4786172.030522507
671,0.0
708,4431390.4651760919
2,1, 7,21, 0, 9, 0.00,60.00,SummerDesignDay
357,25.082827521408189
397,23.999990523061045
437,23.999998984603967
477,24.000000000000026
517,23.999999998998744
557,23.99999999899911
2,1, 7,21, 0,10, 0.00,10.00,SummerDesignDay
8,11.97681682509147
10,5384443.534337821
671,0.0
708,4998303.297751139
2,1, 7,21, 0,10,10.00,20.00,SummerDesignDay
8,12.102231155065976
10,5384443.534337821
671,0.0
708,5163295.451039443
2,1, 7,21, 0,10,20.00,30.00,SummerDesignDay
8,12.227101480906173
10,5384443.534337821
671,0.0
708,5311214.498760413
2,1, 7,21, 0,10,30.00,40.00,SummerDesignDay
8,12.351405994665838
10,5384443.534337821
671,0.0
708,5455383.321142606
2,1, 7,21, 0,10,40.00,50.00,SummerDesignDay
8,12.47517410735183
10,5384443.534337821
671,0.0
708,5597592.014208919
2,1, 7,21, 0,10,50.00,60.00,SummerDesignDay
8,12.598387232803143
10,5384443.534337821
671,0.0
708,5737825.259857976
2,1, 7,21, 0,10, 0.00,60.00,SummerDesignDay
357,25.74331097258111
397,23.999999999999138
437,23.999999999999888
477,24.00000000000006
517,24.000000000000015
557,24.00000000000001
2,1, 7,21, 0,11, 0.00,10.00,SummerDesignDay
8,12.706657426061515
10,5384443.534337821
671,0.0
708,5868988.897949631
2,1, 7,21, 0,11,10.00,20.00,SummerDesignDay
8,12.814507896148893
10,5384443.534337821
671,0.0
708,5993872.933606278
2,1, 7,21, 0,11,20.00,30.00,SummerDesignDay
8,12.921941840825472
10,5384443.534337821
671,0.0
708,6100934.877199914
2,1, 7,21, 0,11,30.00,40.00,SummerDesignDay
8,13.028961355062379
10,5384443.534337821
671,0.0
708,6192390.272409527
2,1, 7,21, 0,11,40.00,50.00,SummerDesignDay
8,13.135568914109563
10,5384443.534337821
671,0.0
708,6282093.091768913
2,1, 7,21, 0,11,50.00,60.00,SummerDesignDay
8,13.241766875418112
10,5384443.534337821
671,0.0
708,6368676.600843992
2,1, 7,21, 0,11, 0.00,60.00,SummerDesignDay
357,26.406596004500768
397,24.000000000000055
437,24.00000000000001
477,24.000000000000129
517,24.000000000000026
557,24.000000000000033
2,1, 7,21, 0,12, 0.00,10.00,SummerDesignDay
8,13.312332120504351
10,5384443.534337821
671,0.0
708,6434825.0589615269
2,1, 7,21, 0,12,10.00,20.00,SummerDesignDay
8,13.382729832286778
10,5384443.534337821
671,0.0
708,6500866.040105693
2,1, 7,21, 0,12,20.00,30.00,SummerDesignDay
8,13.452935435202303
10,5384443.534337821
671,0.0
708,6568881.78141112
2,1, 7,21, 0,12,30.00,40.00,SummerDesignDay
8,13.5229715171431
10,5384443.534337821
671,0.0
708,6640487.940430895
2,1, 7,21, 0,12,40.00,50.00,SummerDesignDay
8,13.592832639059534
10,5384443.534337821
671,0.0
708,6716663.265865544
2,1, 7,21, 0,12,50.00,60.00,SummerDesignDay
8,13.662504355632294
10,5384443.534337821
671,0.0
708,6798855.278499935
2,1, 7,21, 0,12, 0.00,60.00,SummerDesignDay
357,26.96409261025484
397,24.00000000000003
437,24.000000000000019
477,24.000000000000015
517,24.00000000000004
557,24.0
2,1, 7,21, 0,13, 0.00,10.00,SummerDesignDay
8,13.718119473806257
10,5384443.534337821
671,0.0
708,6567591.545042187
2,1, 7,21, 0,13,10.00,20.00,SummerDesignDay
8,13.773621872844645
10,5384443.534337821
671,0.0
708,6640581.404661872
2,1, 7,21, 0,13,20.00,30.00,SummerDesignDay
8,13.82902061341969
10,5384443.534337821
671,0.0
708,6720267.741407538
2,1, 7,21, 0,13,30.00,40.00,SummerDesignDay
8,13.884298924816953
10,5384443.534337821
671,0.0
708,6805266.011183866
2,1, 7,21, 0,13,40.00,50.00,SummerDesignDay
8,13.939465293793303
10,5384443.534337821
671,0.0
708,6886326.297335368
2,1, 7,21, 0,13,50.00,60.00,SummerDesignDay
8,13.994520536118431
10,5384443.534337821
671,0.0
708,6962586.785416774
2,1, 7,21, 0,13, 0.00,60.00,SummerDesignDay
357,27.394387644734537
397,24.0
437,24.00000000000008
477,24.000000000000033
517,24.000000000000026
557,24.00000000000003
2,1, 7,21, 0,14, 0.00,10.00,SummerDesignDay
8,14.028868933486186
10,5384443.534337821
671,0.0
708,7022886.912091664
2,1, 7,21, 0,14,10.00,20.00,SummerDesignDay
8,14.063177329374949
10,5384443.534337821
671,0.0
708,7076913.075844282
2,1, 7,21, 0,14,20.00,30.00,SummerDesignDay
8,14.09745163518578
10,5384443.534337821
671,0.0
708,7124252.536534455
2,1, 7,21, 0,14,30.00,40.00,SummerDesignDay
8,14.131674167392184
10,5384443.534337821
671,0.0
708,7163674.772132249
2,1, 7,21, 0,14,40.00,50.00,SummerDesignDay
8,14.165850004794942
10,5384443.534337821
671,0.0
708,7195324.693091941
2,1, 7,21, 0,14,50.00,60.00,SummerDesignDay
8,14.199995501199228
10,5384443.534337821
671,0.0
708,7219978.760831645
2,1, 7,21, 0,14, 0.00,60.00,SummerDesignDay
357,27.701781601732625
397,24.00000000000004
437,24.000000000000033
477,24.000000000000015
517,24.00000000000003
557,24.000000000000026
2,1, 7,21, 0,15, 0.00,10.00,SummerDesignDay
8,14.199995501199228
10,5384443.534337821
671,0.0
708,7551871.116842707
2,1, 7,21, 0,15,10.00,20.00,SummerDesignDay
8,14.199995501199228
10,5384443.534337821
671,0.0
708,7578767.591150237
2,1, 7,21, 0,15,20.00,30.00,SummerDesignDay
8,14.199995501199228
10,5384443.534337821
671,0.0
708,7606005.489734368
2,1, 7,21, 0,15,30.00,40.00,SummerDesignDay
8,14.199995501199228
10,5384443.534337821
671,0.0
708,7638398.596702077
2,1, 7,21, 0,15,40.00,50.00,SummerDesignDay
8,14.199995501199228
10,5384443.534337821
671,0.0
708,7676805.885555491
2,1, 7,21, 0,15,50.00,60.00,SummerDesignDay
8,14.199995501199228
10,5384443.534337821
671,0.0
708,7721210.303782671
2,1, 7,21, 0,15, 0.00,60.00,SummerDesignDay
357,27.870480429286635
397,24.000000000000055
437,24.000000000000005
477,24.000000000000015
517,24.00000000000003
557,24.000000000000033
2,1, 7,21, 0,16, 0.00,10.00,SummerDesignDay
8,14.159018930325284
10,5384443.534337821
671,0.0
708,7749965.607576475
2,1, 7,21, 0,16,10.00,20.00,SummerDesignDay
8,14.1179924524806
10,5384443.534337821
671,0.0
708,7781086.80129804
2,1, 7,21, 0,16,20.00,30.00,SummerDesignDay
8,14.076895523602007
10,5384443.534337821
671,0.0
708,7814574.655482061
2,1, 7,21, 0,16,30.00,40.00,SummerDesignDay
8,14.035732948334204
10,5384443.534337821
671,0.0
708,7866744.73653191
2,1, 7,21, 0,16,40.00,50.00,SummerDesignDay
8,13.994520536118431
10,5384443.534337821
671,0.0
708,7908331.194380866
2,1, 7,21, 0,16,50.00,60.00,SummerDesignDay
8,13.953233287653877
10,5384443.534337821
671,0.0
708,7924821.640077467
2,1, 7,21, 0,16, 0.00,60.00,SummerDesignDay
357,27.88438951944161
397,24.000000000000015
437,24.00000000000003
477,24.000000000000015
517,24.0
557,24.000000000000026
2,1, 7,21, 0,17, 0.00,10.00,SummerDesignDay
8,13.898094789050165
10,5384443.534337821
671,0.0
708,7913687.202106962
2,1, 7,21, 0,17,10.00,20.00,SummerDesignDay
8,13.842847829582155
10,5384443.534337821
671,0.0
708,7891881.276778644
2,1, 7,21, 0,17,20.00,30.00,SummerDesignDay
8,13.78748595150257
10,5384443.534337821
671,0.0
708,7863762.992403101
2,1, 7,21, 0,17,30.00,40.00,SummerDesignDay
8,13.732011652302317
10,5384443.534337821
671,0.0
708,7830428.314680412
2,1, 7,21, 0,17,40.00,50.00,SummerDesignDay
8,13.676424734795996
10,5384443.534337821
671,0.0
708,7796154.878243828
2,1, 7,21, 0,17,50.00,60.00,SummerDesignDay
8,13.620725130477572
10,5384443.534337821
671,0.0
708,7761741.601449947
2,1, 7,21, 0,17, 0.00,60.00,SummerDesignDay
357,27.744673604387939
397,23.99999999999999
437,24.000000000000044
477,24.000000000000047
517,24.000000000000058
557,23.999999999999944
2,1, 7,21, 0,18, 0.00,10.00,SummerDesignDay
8,13.550934723196902
10,5016276.455066859
671,0.0
708,7400201.159777178
2,1, 7,21, 0,18,10.00,20.00,SummerDesignDay
8,13.480979228325725
10,5016276.455066859
671,0.0
708,7322230.989592302
2,1, 7,21, 0,18,20.00,30.00,SummerDesignDay
8,13.410836111345063
10,5016276.455066859
671,0.0
708,7261670.759899948
2,1, 7,21, 0,18,30.00,40.00,SummerDesignDay
8,13.340510408508374
10,5016276.455066859
671,0.0
708,7208092.454826271
2,1, 7,21, 0,18,40.00,50.00,SummerDesignDay
8,13.270017148699207
10,5016276.455066859
671,0.0
708,7163244.521016258
2,1, 7,21, 0,18,50.00,60.00,SummerDesignDay
8,13.199334450651229
10,5016276.455066859
671,0.0
708,7123500.716422623
2,1, 7,21, 0,18, 0.00,60.00,SummerDesignDay
357,27.46634199040781
397,23.999999999999998
437,24.0
477,24.000000000000047
517,24.000000000000015
557,23.99999999999999
2,1, 7,21, 0,19, 0.00,10.00,SummerDesignDay
8,13.092969442790653
10,2991357.519076566
671,0.0
708,5761268.89090598
2,1, 7,21, 0,19,10.00,20.00,SummerDesignDay
8,12.986197380844527
10,2991357.519076566
671,0.0
708,5575282.689551762
2,1, 7,21, 0,19,20.00,30.00,SummerDesignDay
8,12.87901247660917
10,2991357.519076566
671,0.0
708,5443096.622757727
2,1, 7,21, 0,19,30.00,40.00,SummerDesignDay
8,12.771412022028456
10,2991357.519076566
671,0.0
708,5322008.166313022
2,1, 7,21, 0,19,40.00,50.00,SummerDesignDay
8,12.663393987044348
10,2991357.519076566
671,0.0
708,5210891.356795658
2,1, 7,21, 0,19,50.00,60.00,SummerDesignDay
8,12.554964632483584
10,2991357.519076566
671,0.0
708,5108686.547688972
2,1, 7,21, 0,19, 0.00,60.00,SummerDesignDay
357,27.045581455344974
397,24.00000000000004
437,24.000000000000005
477,24.000000000000026
517,24.000000000000015
557,23.999999999999976
2,1, 7,21, 0,20, 0.00,10.00,SummerDesignDay
8,12.47517410735183
10,1462359.638864261
671,0.0
708,4178891.7979935409
2,1, 7,21, 0,20,10.00,20.00,SummerDesignDay
8,12.395155061631434
10,1462359.638864261
671,0.0
708,4016646.5933696946
2,1, 7,21, 0,20,20.00,30.00,SummerDesignDay
8,12.314906694738856
10,1462359.638864261
671,0.0
708,3897104.5348961867
2,1, 7,21, 0,20,30.00,40.00,SummerDesignDay
8,12.234427533603899
10,1462359.638864261
671,0.0
708,3788487.676056581
2,1, 7,21, 0,20,40.00,50.00,SummerDesignDay
8,12.153713649496125
10,1462359.638864261
671,0.0
708,3686774.215488298
2,1, 7,21, 0,20,50.00,60.00,SummerDesignDay
8,12.072770732847382
10,1462359.638864261
671,0.0
708,3590002.405284769
2,1, 7,21, 0,20, 0.00,60.00,SummerDesignDay
357,26.52648728241716
397,24.000000000000019
437,24.0
477,24.00000000000001
517,24.000000000000044
557,24.000000000000104
2,1, 7,21, 0,21, 0.00,10.00,SummerDesignDay
8,12.006377507130426
10,1462359.638864261
671,0.0
708,3497605.1910962208
2,1, 7,21, 0,21,10.00,20.00,SummerDesignDay
8,11.939823746581173
10,1462359.638864261
671,0.0
708,3396558.3952877868
2,1, 7,21, 0,21,20.00,30.00,SummerDesignDay
8,11.873103146286102
10,1462359.638864261
671,0.0
708,3293689.145012604
2,1, 7,21, 0,21,30.00,40.00,SummerDesignDay
8,11.80623753609044
10,1462359.638864261
671,0.0
708,3183252.316692683
2,1, 7,21, 0,21,40.00,50.00,SummerDesignDay
8,11.73921006237278
10,1462359.638864261
671,0.0
708,3063303.765561006
2,1, 7,21, 0,21,50.00,60.00,SummerDesignDay
8,11.672013384940366
10,1462359.638864261
671,0.0
708,2932443.3164538519
2,1, 7,21, 0,21, 0.00,60.00,SummerDesignDay
357,26.010566494822656
397,24.00000000000003
437,24.00000000000001
477,24.000000000000019
517,24.000000000000019
557,23.99999999999997
2,1, 7,21, 0,22, 0.00,10.00,SummerDesignDay
8,11.604670557236198
10,717557.6374991046
671,0.0
708,0.0
2,1, 7,21, 0,22,10.00,20.00,SummerDesignDay
8,11.537153992470785
10,717557.6374991046
671,0.0
708,0.0
2,1, 7,21, 0,22,20.00,30.00,SummerDesignDay
8,11.469486539084178
10,717557.6374991046
671,0.0
708,0.0
2,1, 7,21, 0,22,30.00,40.00,SummerDesignDay
8,11.40166121489618
10,717557.6374991046
671,0.0
708,0.0
2,1, 7,21, 0,22,40.00,50.00,SummerDesignDay
8,11.33366024844719
10,717557.6374991046
671,0.0
708,0.0
2,1, 7,21, 0,22,50.00,60.00,SummerDesignDay
8,11.265510209805035
10,717557.6374991046
671,0.0
708,0.0
2,1, 7,21, 0,22, 0.00,60.00,SummerDesignDay
357,25.56654472590078
397,24.618527936148735
437,24.820449817505719
477,24.768969961177168
517,24.955629613703399
557,25.910137869622259
2,1, 7,21, 0,23, 0.00,10.00,SummerDesignDay
8,11.212382727289285
10,717557.6374991046
671,0.0
708,0.0
2,1, 7,21, 0,23,10.00,20.00,SummerDesignDay
8,11.159159924733532
10,717557.6374991046
671,0.0
708,0.0
2,1, 7,21, 0,23,20.00,30.00,SummerDesignDay
8,11.105847507672504
10,717557.6374991046
671,0.0
708,0.0
2,1, 7,21, 0,23,30.00,40.00,SummerDesignDay
8,11.05242589755245
10,717557.6374991046
671,0.0
708,0.0
2,1, 7,21, 0,23,40.00,50.00,SummerDesignDay
8,10.998904557243503
10,717557.6374991046
671,0.0
708,0.0
2,1, 7,21, 0,23,50.00,60.00,SummerDesignDay
8,10.945279185300978
10,717557.6374991046
671,0.0
708,0.0
2,1, 7,21, 0,23, 0.00,60.00,SummerDesignDay
357,25.09819261694282
397,24.669944336041117
437,24.83101090120296
477,24.77253446803914
517,24.729782848394306
557,25.660701164938684
2,1, 7,21, 0,24, 0.00,10.00,SummerDesignDay
8,10.891557299913203
10,588883.2432939032
671,0.0
708,0.0
2,1, 7,21, 0,24,10.00,20.00,SummerDesignDay
8,10.837734778324489
10,588883.2432939032
671,0.0
708,0.0
2,1, 7,21, 0,24,20.00,30.00,SummerDesignDay
8,10.783821272645837
10,588883.2432939032
671,0.0
708,0.0
2,1, 7,21, 0,24,30.00,40.00,SummerDesignDay
8,10.729796573137922
10,588883.2432939032
671,0.0
708,0.0
2,1, 7,21, 0,24,40.00,50.00,SummerDesignDay
8,10.675670448285729
10,588883.2432939032
671,0.0
708,0.0
2,1, 7,21, 0,24,50.00,60.00,SummerDesignDay
8,10.621438656817265
10,588883.2432939032
671,0.0
708,0.0
2,1, 7,21, 0,24, 0.00,60.00,SummerDesignDay
357,24.840565752780404
397,24.335306971195636
437,24.471617513053447
477,24.42066321016897
517,24.292139201747458
557,25.1269342256451
3,1, 7,21, 0,SummerDesignDay
358,28.210027525868058,24.80267200794421,16,10,31.622902348581044, 5,40
398,35.73409476043528,31.70281456387522, 8,50,41.20088037372036,17,60
438,35.30913644418643,31.648968365075594, 8,50,40.07405229836585,17,60
478,34.94175472193532,29.293558976347584, 6,60,40.25288917998074,17,60
518,35.364512749443829,31.5033182478871, 8,30,40.52280522856891,17,60
558,34.81773579202036,30.075182639875764,22,20,39.615256301159089,12,60
4,1, 7
7,19.640374999999997,14.399999999999999,21, 5,60,25.7,21,14,60
1,WHITEHORSE INTL AP ANN HTG 99.6% CONDNS DB,  60.71,-135.07,  -8.00, 706.20
2,1, 1,21, 0, 1, 0.00,10.00,WinterDesignDay
8,-39.7
10,588883.2432939032
671,11922631.681286317
708,0.0
2,1, 1,21, 0, 1,10.00,20.00,WinterDesignDay
8,-39.7
10,588883.2432939032
671,11983849.4232919
708,0.0
2,1, 1,21, 0, 1,20.00,30.00,WinterDesignDay
8,-39.7
10,588883.2432939032
671,12042958.057579618
708,0.0
2,1, 1,21, 0, 1,30.00,40.00,WinterDesignDay
8,-39.7
10,588883.2432939032
671,12100282.952726592
708,0.0
2,1, 1,21, 0, 1,40.00,50.00,WinterDesignDay
8,-39.7
10,588883.2432939032
671,12156085.197613605
708,0.0
2,1, 1,21, 0, 1,50.00,60.00,WinterDesignDay
8,-39.7
10,588883.2432939032
671,12210571.6384198
708,0.0
2,1, 1,21, 0, 1, 0.00,60.00,WinterDesignDay
357,11.765282773440239
397,17.999999999999998
437,18.000000000000015
477,18.000000000000033
517,17.999999999999994
557,18.000000000000019
2,1, 1,21, 0, 2, 0.00,10.00,WinterDesignDay
8,-39.7
10,588883.2432939032
671,12263905.969584257
708,0.0
2,1, 1,21, 0, 2,10.00,20.00,WinterDesignDay
8,-39.7
10,588883.2432939032
671,12316217.607574482
708,0.0
2,1, 1,21, 0, 2,20.00,30.00,WinterDesignDay
8,-39.7
10,588883.2432939032
671,12367608.784787056
708,0.0
2,1, 1,21, 0, 2,30.00,40.00,WinterDesignDay
8,-39.7
10,588883.2432939032
671,12418160.213702152
708,0.0
2,1, 1,21, 0, 2,40.00,50.00,WinterDesignDay
8,-39.7
10,588883.2432939032
671,12467935.602549918
708,0.0
2,1, 1,21, 0, 2,50.00,60.00,WinterDesignDay
8,-39.7
10,588883.2432939032
671,12516985.249662376
708,0.0
2,1, 1,21, 0, 2, 0.00,60.00,WinterDesignDay
357,11.545824359147743
397,17.999999999999998
437,18.00000000000001
477,17.999999999999998
517,18.000000000000026
557,18.000000000000008
2,1, 1,21, 0, 3, 0.00,10.00,WinterDesignDay
8,-39.7
10,588883.2432939032
671,12565348.900193816
708,0.0
2,1, 1,21, 0, 3,10.00,20.00,WinterDesignDay
8,-39.7
10,588883.2432939032
671,12613058.013416479
708,0.0
2,1, 1,21, 0, 3,20.00,30.00,WinterDesignDay
8,-39.7
10,588883.2432939032
671,12660137.559817698
708,0.0
2,1, 1,21, 0, 3,30.00,40.00,WinterDesignDay
8,-39.7
10,588883.2432939032
671,12706607.443592022
708,0.0
2,1, 1,21, 0, 3,40.00,50.00,WinterDesignDay
8,-39.7
10,588883.2432939032
671,12752483.627049048
708,0.0
2,1, 1,21, 0, 3,50.00,60.00,WinterDesignDay
8,-39.7
10,588883.2432939032
671,12797779.01806064
708,0.0
2,1, 1,21, 0, 3, 0.00,60.00,WinterDesignDay
357,11.342084097465835
397,18.0
437,18.0
477,18.00000000000002
517,18.000000000000005
557,17.999999999999987
2,1, 1,21, 0, 4, 0.00,10.00,WinterDesignDay
8,-39.7
10,588883.2432939032
671,12842504.169335958
708,0.0
2,1, 1,21, 0, 4,10.00,20.00,WinterDesignDay
8,-39.7
10,588883.2432939032
671,12886667.82841037
708,0.0
2,1, 1,21, 0, 4,20.00,30.00,WinterDesignDay
8,-39.7
10,588883.2432939032
671,12930277.36932121
708,0.0
2,1, 1,21, 0, 4,30.00,40.00,WinterDesignDay
8,-39.7
10,588883.2432939032
671,12973303.023417078
708,0.0
2,1, 1,21, 0, 4,40.00,50.00,WinterDesignDay
8,-39.7
10,588883.2432939032
671,13015829.255186869
708,0.0
2,1, 1,21, 0, 4,50.00,60.00,WinterDesignDay
8,-39.7
10,588883.2432939032
671,13057783.555212044
708,0.0
2,1, 1,21, 0, 4, 0.00,60.00,WinterDesignDay
357,11.15464901347403
397,17.999999999999998
437,18.000000000000037
477,17.999999999999994
517,18.00000000000001
557,17.999999999999994
2,1, 1,21, 0, 5, 0.00,10.00,WinterDesignDay
8,-39.7
10,588883.2432939032
671,13099205.24263014
708,0.0
2,1, 1,21, 0, 5,10.00,20.00,WinterDesignDay
8,-39.7
10,588883.2432939032
671,13140105.139509535
708,0.0
2,1, 1,21, 0, 5,20.00,30.00,WinterDesignDay
8,-39.7
10,588883.2432939032
671,13180480.870241998
708,0.0
2,1, 1,21, 0, 5,30.00,40.00,WinterDesignDay
8,-39.7
10,588883.2432939032
671,13220336.091427403
708,0.0
2,1, 1,21, 0, 5,40.00,50.00,WinterDesignDay
8,-39.7
10,588883.2432939032
671,13259674.629845154
708,0.0
2,1, 1,21, 0, 5,50.00,60.00,WinterDesignDay
8,-39.7
10,588883.2432939032
671,13298500.510545586
708,0.0
2,1, 1,21, 0, 5, 0.00,60.00,WinterDesignDay
357,10.98346749312534
397,17.999999999999998
437,18.00000000000004
477,18.000000000000019
517,18.000000000000026
557,18.0
2,1, 1,21, 0, 6, 0.00,10.00,WinterDesignDay
8,-39.7
10,588883.2432939032
671,13336817.84316843
708,0.0
2,1, 1,21, 0, 6,10.00,20.00,WinterDesignDay
8,-39.7
10,588883.2432939032
671,13374630.754705817
708,0.0
2,1, 1,21, 0, 6,20.00,30.00,WinterDesignDay
8,-39.7
10,588883.2432939032
671,13411943.37776887
708,0.0
2,1, 1,21, 0, 6,30.00,40.00,WinterDesignDay
8,-39.7
10,588883.2432939032
671,13448759.862580302
708,0.0
2,1, 1,21, 0, 6,40.00,50.00,WinterDesignDay
8,-39.7
10,588883.2432939032
671,13485084.390362034
708,0.0
2,1, 1,21, 0, 6,50.00,60.00,WinterDesignDay
8,-39.7
10,588883.2432939032
671,13520921.18241584
708,0.0
2,1, 1,21, 0, 6, 0.00,60.00,WinterDesignDay
357,10.825543786553851
397,17.999999999999994
437,18.000000000000055
477,17.999999999999969
517,17.999999999999994
557,18.000000000000033
2,1, 1,21, 0, 7, 0.00,10.00,WinterDesignDay
8,-39.7
10,588883.2432939032
671,21267379.961176356
708,0.0
2,1, 1,21, 0, 7,10.00,20.00,WinterDesignDay
8,-39.7
10,588883.2432939032
671,14269304.202049312
708,0.0
2,1, 1,21, 0, 7,20.00,30.00,WinterDesignDay
8,-39.7
10,588883.2432939032
671,19233485.86684599
708,0.0
2,1, 1,21, 0, 7,30.00,40.00,WinterDesignDay
8,-39.7
10,588883.2432939032
671,17796992.679286373
708,0.0
2,1, 1,21, 0, 7,40.00,50.00,WinterDesignDay
8,-39.7
10,588883.2432939032
671,17644225.91200774
708,0.0
2,1, 1,21, 0, 7,50.00,60.00,WinterDesignDay
8,-39.7
10,588883.2432939032
671,17522342.707502374
708,0.0
2,1, 1,21, 0, 7, 0.00,60.00,WinterDesignDay
357,10.689301316758633
397,20.008255047832014
437,20.001154377775703
477,20.000585607948684
517,20.001764670434516
557,20.000585607948766
2,1, 1,21, 0, 8, 0.00,10.00,WinterDesignDay
8,-39.7
10,1462359.638864261
671,25241296.489432619
708,0.0
2,1, 1,21, 0, 8,10.00,20.00,WinterDesignDay
8,-39.7
10,1462359.638864261
671,18183450.986483799
708,0.0
2,1, 1,21, 0, 8,20.00,30.00,WinterDesignDay
8,-39.7
10,1462359.638864261
671,22690335.14052658
708,0.0
2,1, 1,21, 0, 8,30.00,40.00,WinterDesignDay
8,-39.7
10,1462359.638864261
671,21199267.72706116
708,0.0
2,1, 1,21, 0, 8,40.00,50.00,WinterDesignDay
8,-39.7
10,1462359.638864261
671,20907541.66584917
708,0.0
2,1, 1,21, 0, 8,50.00,60.00,WinterDesignDay
8,-39.7
10,1462359.638864261
671,20682090.97213932
708,0.0
2,1, 1,21, 0, 8, 0.00,60.00,WinterDesignDay
357,10.637576782860285
397,22.0036247819133
437,21.996435835657853
477,21.99641469994396
517,21.996604560726654
557,21.996414699943928
2,1, 1,21, 0, 9, 0.00,10.00,WinterDesignDay
8,-39.7
10,4786172.030522507
671,18431729.88095995
708,0.0
2,1, 1,21, 0, 9,10.00,20.00,WinterDesignDay
8,-39.7
10,4786172.030522507
671,18078916.044709188
708,0.0
2,1, 1,21, 0, 9,20.00,30.00,WinterDesignDay
8,-39.7
10,4786172.030522507
671,17840951.92709603
708,0.0
2,1, 1,21, 0, 9,30.00,40.00,WinterDesignDay
8,-39.7
10,4786172.030522507
671,17645070.681956896
708,0.0
2,1, 1,21, 0, 9,40.00,50.00,WinterDesignDay
8,-39.7
10,4786172.030522507
671,17482378.11069432
708,0.0
2,1, 1,21, 0, 9,50.00,60.00,WinterDesignDay
8,-39.7
10,4786172.030522507
671,17342826.768247364
708,0.0
2,1, 1,21, 0, 9, 0.00,60.00,WinterDesignDay
357,10.73020119169191
397,22.000000000000058
437,22.000000000000044
477,22.000000000000044
517,22.000000000000019
557,22.00000000000008
2,1, 1,21, 0,10, 0.00,10.00,WinterDesignDay
8,-39.7
10,5384443.534337821