Program Version,EnergyPlus, Version 8.9.0-eba93e8e1b, YMD=2018.11.01 15:46
1,5,Environment Title[],Latitude[deg],Longitude[deg],Time Zone[],Elevation[m]
2,8,Day of Simulation[],Month[],Day of Month[],DST Indicator[1=yes 0=no],Hour[],StartMinute[],EndMinute[],DayType
3,5,Cumulative Day of Simulation[],Month[],Day of Month[],DST Indicator[1=yes 0=no],DayType  ! When Daily Report Variables Requested
4,2,Cumulative Days of Simulation[],Month[]  ! When Monthly Report Variables Requested
5,1,Cumulative Days of Simulation[] ! When Run Period Report Variables Requested
6,1,Calendar Year of Simulation[] ! When Annual Report Variables Requested
7,9,Environment,Site Outdoor Air Drybulb Temperature [C] !Monthly [Value,Min,Day,Hour,Minute,Max,Day,Hour,Minute]
8,1,Environment,Site Outdoor Air Wetbulb Temperature [C] !TimeStep
543,1,SP-ATTIC SYS-0 FLR-2 SCH-- UNDEFINED - HPLCMT-CORE ZN,Zone Air Temperature [C] !Hourly
544,7,SP-ATTIC SYS-0 FLR-2 SCH-- UNDEFINED - HPLCMT-CORE ZN,Zone Air Relative Humidity [%] !Daily [Value,Min,Hour,Minute,Max,Hour,Minute]
583,1,SP-CORE_ZN SYS-3 FLR-1 SCH-A HPLCMT-CORE ZN,Zone Air Temperature [C] !Hourly
584,7,SP-CORE_ZN SYS-3 FLR-1 SCH-A HPLCMT-CORE ZN,Zone Air Relative Humidity [%] !Daily [Value,Min,Hour,Minute,Max,Hour,Minute]
623,1,SP-PERIMETER_ZN_1 SYS-3 FLR-1 SCH-A HPLCMT-SOUTH ZN,Zone Air Temperature [C] !Hourly
624,7,SP-PERIMETER_ZN_1 SYS-3 FLR-1 SCH-A HPLCMT-SOUTH ZN,Zone Air Relative Humidity [%] !Daily [Value,Min,Hour,Minute,Max,Hour,Minute]
663,1,SP-PERIMETER_ZN_2 SYS-3 FLR-1 SCH-A HPLCMT-EAST ZN,Zone Air Temperature [C] !Hourly
664,7,SP-PERIMETER_ZN_2 SYS-3 FLR-1 SCH-A HPLCMT-EAST ZN,Zone Air Relative Humidity [%] !Daily [Value,Min,Hour,Minute,Max,Hour,Minute]
703,1,SP-PERIMETER_ZN_3 SYS-3 FLR-1 SCH-A HPLCMT-NORTH ZN,Zone Air Temperature [C] !Hourly
704,7,SP-PERIMETER_ZN_3 SYS-3 FLR-1 SCH-A HPLCMT-NORTH ZN,Zone Air Relative Humidity [%] !Daily [Value,Min,Hour,Minute,Max,Hour,Minute]
743,1,SP-PERIMETER_ZN_4 SYS-3 FLR-1 SCH-A HPLCMT-WEST ZN,Zone Air Temperature [C] !Hourly
744,7,SP-PERIMETER_ZN_4 SYS-3 FLR-1 SCH-A HPLCMT-WEST ZN,Zone Air Relative Humidity [%] !Daily [Value,Min,Hour,Minute,Max,Hour,Minute]
10,1,Electricity:Facility [J] !TimeStep
End of Data Dictionary
1,WHITEHORSE INTL AP ANN CLG .4% CONDNS DB=>MWB,  60.71,-135.07,  -8.00, 706.20
2,1, 7,21, 0, 1, 0.00,10.00,SummerDesignDay
8,10.574884373812747
10,2081177.1905406083
2,1, 7,21, 0, 1,10.00,20.00,SummerDesignDay
8,10.528245252751797
10,2081177.1905406083
2,1, 7,21, 0, 1,20.00,30.00,SummerDesignDay
8,10.481526817557933
10,2081177.1905406083
2,1, 7,21, 0, 1,30.00,40.00,SummerDesignDay
8,10.43474672761587
10,2220482.7389333026
2,1, 7,21, 0, 1,40.00,50.00,SummerDesignDay
8,10.387884178660615
10,2370726.5865787609
2,1, 7,21, 0, 1,50.00,60.00,SummerDesignDay
8,10.340945439918965
10,2081177.1905406083
2,1, 7,21, 0, 1, 0.00,60.00,SummerDesignDay
543,24.884167128760283
583,25.196693295475638
623,26.15595553393791
663,26.327244302423094
703,25.348331334566507
743,27.07757760942898
2,1, 7,21, 0, 2, 0.00,10.00,SummerDesignDay
8,10.309610812103998
10,2081177.1905406083
2,1, 7,21, 0, 2,10.00,20.00,SummerDesignDay
8,10.278242517360706
10,2081177.1905406083
2,1, 7,21, 0, 2,20.00,30.00,SummerDesignDay
8,10.246840178286885
10,2508663.3188612575
2,1, 7,21, 0, 2,30.00,40.00,SummerDesignDay
8,10.215403920831856
10,2081177.1905406083
2,1, 7,21, 0, 2,40.00,50.00,SummerDesignDay
8,10.183930399115332
10,2081177.1905406083
2,1, 7,21, 0, 2,50.00,60.00,SummerDesignDay
8,10.152425746609186
10,2081177.1905406083
2,1, 7,21, 0, 2, 0.00,60.00,SummerDesignDay
543,24.70133366259223
583,24.99496741058287
623,25.91147726020958
663,26.10938012212458
703,25.109638654990638
743,26.80097414790075
2,1, 7,21, 0, 3, 0.00,10.00,SummerDesignDay
8,10.128776674788054
10,2510482.7066672577
2,1, 7,21, 0, 3,10.00,20.00,SummerDesignDay
8,10.105105152561754
10,2081177.1905406083
2,1, 7,21, 0, 3,20.00,30.00,SummerDesignDay
8,10.081417734849238
10,2081177.1905406083
2,1, 7,21, 0, 3,30.00,40.00,SummerDesignDay
8,10.057707612553946
10,2081177.1905406083
2,1, 7,21, 0, 3,40.00,50.00,SummerDesignDay
8,10.033981692635047
10,2512228.429188791
2,1, 7,21, 0, 3,50.00,60.00,SummerDesignDay
8,10.010232880593606
10,2081177.1905406083
2,1, 7,21, 0, 3, 0.00,60.00,SummerDesignDay
543,24.53040200920931
583,24.81904051285953
623,25.692723566675445
663,25.905083449215995
703,24.905554876311045
743,26.558576011841486
2,1, 7,21, 0, 4, 0.00,10.00,SummerDesignDay
8,9.986465162559983
10,2081177.1905406083
2,1, 7,21, 0, 4,10.00,20.00,SummerDesignDay
8,9.962680941033236
10,2081177.1905406083
2,1, 7,21, 0, 4,20.00,30.00,SummerDesignDay
8,9.938874376005396
10,2513936.9697436329
2,1, 7,21, 0, 4,30.00,40.00,SummerDesignDay
8,9.915051561908128
10,2081177.1905406083
2,1, 7,21, 0, 4,40.00,50.00,SummerDesignDay
8,9.891205810354297
10,2081177.1905406083
2,1, 7,21, 0, 4,50.00,60.00,SummerDesignDay
8,9.867344199745029
10,2081177.1905406083
2,1, 7,21, 0, 4, 0.00,60.00,SummerDesignDay
543,24.364499047986798
583,24.655120965359676
623,25.49071891459882
663,25.714189999971667
703,24.71716829230129
743,26.33556349413594
2,1, 7,21, 0, 5, 0.00,10.00,SummerDesignDay
8,9.851424645587466
10,2515649.0935771528
2,1, 7,21, 0, 5,10.00,20.00,SummerDesignDay
8,9.835492842713276
10,2081177.1905406083
2,1, 7,21, 0, 5,20.00,30.00,SummerDesignDay
8,9.819556028129357
10,2081177.1905406083
2,1, 7,21, 0, 5,30.00,40.00,SummerDesignDay
8,9.80361009819741
10,2081177.1905406083
2,1, 7,21, 0, 5,40.00,50.00,SummerDesignDay
8,9.787655819020637
10,2278489.8668169539
2,1, 7,21, 0, 5,50.00,60.00,SummerDesignDay
8,9.77169266473284
10,2313841.891901576
2,1, 7,21, 0, 5, 0.00,60.00,SummerDesignDay
543,24.26122764922542
583,24.508722705377364
623,25.31684313412818
663,25.68511584238679
703,24.669086161713098
743,26.14471785409057
2,1, 7,21, 0, 6, 0.00,10.00,SummerDesignDay
8,9.787655819020637
10,2086060.8592459949
2,1, 7,21, 0, 6,10.00,20.00,SummerDesignDay
8,9.80361009819741
10,2086377.1297461338
2,1, 7,21, 0, 6,20.00,30.00,SummerDesignDay
8,9.819556028129357
10,2087328.7975888842
2,1, 7,21, 0, 6,30.00,40.00,SummerDesignDay
8,9.835492842713276
10,2515147.8277628149
2,1, 7,21, 0, 6,40.00,50.00,SummerDesignDay
8,9.851424645587466
10,2088795.3836314099
2,1, 7,21, 0, 6,50.00,60.00,SummerDesignDay
8,9.867344199745029
10,2089371.7067572564
2,1, 7,21, 0, 6, 0.00,60.00,SummerDesignDay
543,24.3891310638486
583,24.51929394421401
623,25.29172609972906
663,26.433165934764636
703,25.080269057485116
743,26.10901536046721
2,1, 7,21, 0, 7, 0.00,10.00,SummerDesignDay
8,9.922993402171457
10,3167567.0952166097
2,1, 7,21, 0, 7,10.00,20.00,SummerDesignDay
8,9.978540284213477
10,3137829.284641034
2,1, 7,21, 0, 7,20.00,30.00,SummerDesignDay
8,10.033981692635047
10,2801904.018583783
2,1, 7,21, 0, 7,30.00,40.00,SummerDesignDay
8,10.089314673383278
10,2683813.322490305
2,1, 7,21, 0, 7,40.00,50.00,SummerDesignDay
8,10.144545943774915
10,2673669.13469285
2,1, 7,21, 0, 7,50.00,60.00,SummerDesignDay
8,10.199672942686155
10,3107526.5895302218
2,1, 7,21, 0, 7, 0.00,60.00,SummerDesignDay
543,24.63411184685569
583,24.001590373609017
623,24.009156523510609
663,24.07701837001346
703,24.025084645093345
743,24.024923900845456
2,1, 7,21, 0, 8, 0.00,10.00,SummerDesignDay
8,10.333113532252485
10,3668003.599856349
2,1, 7,21, 0, 8,10.00,20.00,SummerDesignDay
8,10.465946348121124
10,3696389.007753364
2,1, 7,21, 0, 8,20.00,30.00,SummerDesignDay
8,10.598165962627448
10,4170947.3700577828
2,1, 7,21, 0, 8,30.00,40.00,SummerDesignDay
8,10.729796573137922
10,3741098.8576089136
2,1, 7,21, 0, 8,40.00,50.00,SummerDesignDay
8,10.860814646787793
10,4221061.254239652
2,1, 7,21, 0, 8,50.00,60.00,SummerDesignDay
8,10.991252164970467
10,3786234.9550557315
2,1, 7,21, 0, 8, 0.00,60.00,SummerDesignDay
543,25.051390091480689
583,23.999954347435425
623,23.99997248861227
663,23.99990473354244
703,23.99996423229116
743,23.999973592148725
2,1, 7,21, 0, 9, 0.00,10.00,SummerDesignDay
8,11.136328759361359
10,8390283.543247467
2,1, 7,21, 0, 9,10.00,20.00,SummerDesignDay
8,11.280673139948592
10,8552518.73733529
2,1, 7,21, 0, 9,20.00,30.00,SummerDesignDay
8,11.42429076444808
10,8593855.740690755
2,1, 7,21, 0, 9,30.00,40.00,SummerDesignDay
8,11.567187263625366
10,8632667.547199924
2,1, 7,21, 0, 9,40.00,50.00,SummerDesignDay
8,11.709358464730734
10,8618872.536723104
2,1, 7,21, 0, 9,50.00,60.00,SummerDesignDay
8,11.850829069928455
10,8607074.261798166
2,1, 7,21, 0, 9, 0.00,60.00,SummerDesignDay
543,25.592354216201984
583,23.99961356747295
623,23.999718314662144
663,23.99939388119598
703,23.9996716066096
743,23.99974237762247
2,1, 7,21, 0,10, 0.00,10.00,SummerDesignDay
8,11.97681682509147
10,9340070.876627867
2,1, 7,21, 0,10,10.00,20.00,SummerDesignDay
8,12.102231155065976
10,9387188.487468368
2,1, 7,21, 0,10,20.00,30.00,SummerDesignDay
8,12.227101480906173
10,9431105.816946306
2,1, 7,21, 0,10,30.00,40.00,SummerDesignDay
8,12.351405994665838
10,9473400.864771447
2,1, 7,21, 0,10,40.00,50.00,SummerDesignDay
8,12.47517410735183
10,9513849.840925074
2,1, 7,21, 0,10,50.00,60.00,SummerDesignDay
8,12.598387232803143
10,9552777.047501428
2,1, 7,21, 0,10, 0.00,60.00,SummerDesignDay
543,26.2175456180494
583,23.998991496726196
623,23.99951694063941
663,23.998922694614718
703,23.99929711310793
743,23.9996574175539
2,1, 7,21, 0,11, 0.00,10.00,SummerDesignDay
8,12.706657426061515
10,10321108.18679216
2,1, 7,21, 0,11,10.00,20.00,SummerDesignDay
8,12.814507896148893
10,10375714.78069218
2,1, 7,21, 0,11,20.00,30.00,SummerDesignDay
8,12.921941840825472
10,10409967.275587785
2,1, 7,21, 0,11,30.00,40.00,SummerDesignDay
8,13.028961355062379
10,10439911.186444017
2,1, 7,21, 0,11,40.00,50.00,SummerDesignDay
8,13.135568914109563
10,10467180.344313438
2,1, 7,21, 0,11,50.00,60.00,SummerDesignDay
8,13.241766875418112
10,10493638.97372587
2,1, 7,21, 0,11, 0.00,60.00,SummerDesignDay
543,26.849425565031358
583,23.998414301689718
623,23.998871817371584
663,23.998634069491577
703,23.998852318782267
743,23.999331583746426
2,1, 7,21, 0,12, 0.00,10.00,SummerDesignDay
8,13.312332120504351
10,10515873.810775346
2,1, 7,21, 0,12,10.00,20.00,SummerDesignDay
8,13.382729832286778
10,10536677.114911654
2,1, 7,21, 0,12,20.00,30.00,SummerDesignDay
8,13.452935435202303
10,10561341.6768476
2,1, 7,21, 0,12,30.00,40.00,SummerDesignDay
8,13.5229715171431
10,10173508.603285514
2,1, 7,21, 0,12,40.00,50.00,SummerDesignDay
8,13.592832639059534
10,10608079.640624622
2,1, 7,21, 0,12,50.00,60.00,SummerDesignDay
8,13.662504355632294
10,10636676.504239465
2,1, 7,21, 0,12, 0.00,60.00,SummerDesignDay
543,27.37838734083243
583,23.997933337222635
623,23.998227903867883
663,23.998687211905279
703,23.998549426022863
743,23.999140241615419
2,1, 7,21, 0,13, 0.00,10.00,SummerDesignDay
8,13.718119473806257
10,10582101.650253373
2,1, 7,21, 0,13,10.00,20.00,SummerDesignDay
8,13.773621872844645
10,10602998.732939886
2,1, 7,21, 0,13,20.00,30.00,SummerDesignDay
8,13.82902061341969
10,10623409.02970091
2,1, 7,21, 0,13,30.00,40.00,SummerDesignDay
8,13.884298924816953
10,10643201.488829382
2,1, 7,21, 0,13,40.00,50.00,SummerDesignDay
8,13.939465293793303
10,10662670.169149489
2,1, 7,21, 0,13,50.00,60.00,SummerDesignDay
8,13.994520536118431
10,10681537.415665653
2,1, 7,21, 0,13, 0.00,60.00,SummerDesignDay
543,27.7802499462202
583,23.99802971816419
623,23.998273333882094
663,23.999029941998204
703,23.998669680050189
743,23.999226026010097
2,1, 7,21, 0,14, 0.00,10.00,SummerDesignDay
8,14.028868933486186
10,10695498.923160032
2,1, 7,21, 0,14,10.00,20.00,SummerDesignDay
8,14.063177329374949
10,10708556.138987782
2,1, 7,21, 0,14,20.00,30.00,SummerDesignDay
8,14.09745163518578
10,10720622.917556264
2,1, 7,21, 0,14,30.00,40.00,SummerDesignDay
8,14.131674167392184
10,10320197.204503471
2,1, 7,21, 0,14,40.00,50.00,SummerDesignDay
8,14.165850004794942
10,10740102.609095108
2,1, 7,21, 0,14,50.00,60.00,SummerDesignDay
8,14.199995501199228
10,10747901.462462999
2,1, 7,21, 0,14, 0.00,60.00,SummerDesignDay
543,28.062140526834896
583,23.998120326613173
623,23.998452459054957
663,23.999109960532754
703,23.998744692892918
743,23.999267569248685
2,1, 7,21, 0,15, 0.00,10.00,SummerDesignDay
8,14.199995501199228
10,10821614.897768984
2,1, 7,21, 0,15,10.00,20.00,SummerDesignDay
8,14.199995501199228
10,10834409.765945087
2,1, 7,21, 0,15,20.00,30.00,SummerDesignDay
8,14.199995501199228
10,10849404.32895344
2,1, 7,21, 0,15,30.00,40.00,SummerDesignDay
8,14.199995501199228
10,10865405.101219526
2,1, 7,21, 0,15,40.00,50.00,SummerDesignDay
8,14.199995501199228
10,10881623.222232594
2,1, 7,21, 0,15,50.00,60.00,SummerDesignDay
8,14.199995501199228
10,10897801.33884436
2,1, 7,21, 0,15, 0.00,60.00,SummerDesignDay
543,28.206676415772934
583,23.997886798625158
623,23.998294970404684
663,23.998927065838545
703,23.998497388847665
743,23.999008437645626
2,1, 7,21, 0,16, 0.00,10.00,SummerDesignDay
8,14.159018930325284
10,10905188.650464524
2,1, 7,21, 0,16,10.00,20.00,SummerDesignDay
8,14.1179924524806
10,10911031.414761659
2,1, 7,21, 0,16,20.00,30.00,SummerDesignDay
8,14.076895523602007
10,10914837.237069542
2,1, 7,21, 0,16,30.00,40.00,SummerDesignDay
8,14.035732948334204
10,10506240.601633674
2,1, 7,21, 0,16,40.00,50.00,SummerDesignDay
8,13.994520536118431
10,10919134.547323924
2,1, 7,21, 0,16,50.00,60.00,SummerDesignDay
8,13.953233287653877
10,10915277.890221034
2,1, 7,21, 0,16, 0.00,60.00,SummerDesignDay
543,28.197909611429926
583,23.99756716384921
623,23.998167815376367
663,23.99881965808116
703,23.99827963577572
743,23.998419012941186
2,1, 7,21, 0,17, 0.00,10.00,SummerDesignDay
8,13.898094789050165
10,10577935.542458453
2,1, 7,21, 0,17,10.00,20.00,SummerDesignDay
8,13.842847829582155
10,10692314.44844359
2,1, 7,21, 0,17,20.00,30.00,SummerDesignDay
8,13.78748595150257
10,10340462.569960604
2,1, 7,21, 0,17,30.00,40.00,SummerDesignDay
8,13.732011652302317
10,10350238.244646047
2,1, 7,21, 0,17,40.00,50.00,SummerDesignDay
8,13.676424734795996
10,10795924.1611396
2,1, 7,21, 0,17,50.00,60.00,SummerDesignDay
8,13.620725130477572
10,10280845.975903899
2,1, 7,21, 0,17, 0.00,60.00,SummerDesignDay
543,28.035606775727119
583,23.997370166147538
623,23.998485414622924
663,23.998869214085663
703,23.99823462307081
743,23.99804590732587
2,1, 7,21, 0,18, 0.00,10.00,SummerDesignDay
8,13.550934723196902
10,9648541.866022883
2,1, 7,21, 0,18,10.00,20.00,SummerDesignDay
8,13.480979228325725
10,9589842.769252338
2,1, 7,21, 0,18,20.00,30.00,SummerDesignDay
8,13.410836111345063
10,9568875.05234804
2,1, 7,21, 0,18,30.00,40.00,SummerDesignDay
8,13.340510408508374
10,9548847.998152003
2,1, 7,21, 0,18,40.00,50.00,SummerDesignDay
8,13.270017148699207
10,9598800.25065127
2,1, 7,21, 0,18,50.00,60.00,SummerDesignDay
8,13.199334450651229
10,9615322.246793585
2,1, 7,21, 0,18, 0.00,60.00,SummerDesignDay
543,27.736117558943094
583,23.997784157575798
623,23.998915364296363
663,23.99911873435633
703,23.998532094393764
743,23.99851846166476
2,1, 7,21, 0,19, 0.00,10.00,SummerDesignDay
8,13.092969442790653
10,6986045.875745384
2,1, 7,21, 0,19,10.00,20.00,SummerDesignDay
8,12.986197380844527
10,6903666.255285575
2,1, 7,21, 0,19,20.00,30.00,SummerDesignDay
8,12.87901247660917
10,6862632.465319909
2,1, 7,21, 0,19,30.00,40.00,SummerDesignDay
8,12.771412022028456
10,6660733.870577619
2,1, 7,21, 0,19,40.00,50.00,SummerDesignDay
8,12.663393987044348
10,6506735.565619279
2,1, 7,21, 0,19,50.00,60.00,SummerDesignDay
8,12.554964632483584
10,6596297.137825309
2,1, 7,21, 0,19, 0.00,60.00,SummerDesignDay
543,27.298460113681448
583,23.99879989713047
623,23.999437554359699
663,23.999557846889315
703,23.99922062627826
743,23.999224913437634
2,1, 7,21, 0,20, 0.00,10.00,SummerDesignDay
8,12.47517410735183
10,4918378.73009022
2,1, 7,21, 0,20,10.00,20.00,SummerDesignDay
8,12.395155061631434
10,4865110.458216875
2,1, 7,21, 0,20,20.00,30.00,SummerDesignDay
8,12.314906694738856
10,4310588.448378008
2,1, 7,21, 0,20,30.00,40.00,SummerDesignDay
8,12.234427533603899
10,4796132.825674238
2,1, 7,21, 0,20,40.00,50.00,SummerDesignDay
8,12.153713649496125
10,4770697.245431262
2,1, 7,21, 0,20,50.00,60.00,SummerDesignDay
8,12.072770732847382
10,4223849.729362875
2,1, 7,21, 0,20, 0.00,60.00,SummerDesignDay
543,26.76300997263957
583,23.99942196818041
623,23.999889253515009
663,23.999967750479994
703,23.999650633759445
743,23.999679450964963
2,1, 7,21, 0,21, 0.00,10.00,SummerDesignDay
8,12.006377507130426
10,4715162.506773538
2,1, 7,21, 0,21,10.00,20.00,SummerDesignDay
8,11.939823746581173
10,4691538.437929464
2,1, 7,21, 0,21,20.00,30.00,SummerDesignDay
8,11.873103146286102
10,4144548.337593289
2,1, 7,21, 0,21,30.00,40.00,SummerDesignDay
8,11.80623753609044
10,4632882.431026021
2,1, 7,21, 0,21,40.00,50.00,SummerDesignDay
8,11.73921006237278
10,4605961.884485858
2,1, 7,21, 0,21,50.00,60.00,SummerDesignDay
8,11.672013384940366
10,4053425.993059795
2,1, 7,21, 0,21, 0.00,60.00,SummerDesignDay
543,26.23389776960103
583,23.99965291545301
623,23.999971082205744
663,24.00002378919369
703,23.999836823617085
743,23.99980301423302
2,1, 7,21, 0,22, 0.00,10.00,SummerDesignDay
8,11.604670557236198
10,2779707.0532603885
2,1, 7,21, 0,22,10.00,20.00,SummerDesignDay
8,11.537153992470785
10,2868568.779748673
2,1, 7,21, 0,22,20.00,30.00,SummerDesignDay
8,11.469486539084178
10,2297192.518490004
2,1, 7,21, 0,22,30.00,40.00,SummerDesignDay
8,11.40166121489618
10,2749981.77335329
2,1, 7,21, 0,22,40.00,50.00,SummerDesignDay
8,11.33366024844719
10,2730024.242158739
2,1, 7,21, 0,22,50.00,60.00,SummerDesignDay
8,11.265510209805035
10,2249647.1196106967
2,1, 7,21, 0,22, 0.00,60.00,SummerDesignDay
543,25.7764440477566
583,25.20710641833467
623,25.828188996381177
663,25.876838369002504
703,25.689300374610455
743,26.987762485724486
2,1, 7,21, 0,23, 0.00,10.00,SummerDesignDay
8,11.212382727289285
10,2658779.1790619299
2,1, 7,21, 0,23,10.00,20.00,SummerDesignDay
8,11.159159924733532
10,2209851.5847458096
2,1, 7,21, 0,23,20.00,30.00,SummerDesignDay
8,11.105847507672504
10,2209851.5847458096
2,1, 7,21, 0,23,30.00,40.00,SummerDesignDay
8,11.05242589755245
10,2209851.5847458096
2,1, 7,21, 0,23,40.00,50.00,SummerDesignDay
8,10.998904557243503
10,2642076.484940497
2,1, 7,21, 0,23,50.00,60.00,SummerDesignDay
8,10.945279185300978
10,2209851.5847458096
2,1, 7,21, 0,23, 0.00,60.00,SummerDesignDay
543,25.313481815620209
583,25.669390189037384
623,26.52463850577548
663,26.625171343543653
703,25.983108218068215
743,27.674600065426519
2,1, 7,21, 0,24, 0.00,10.00,SummerDesignDay
8,10.891557299913203
10,2081177.1905406083
2,1, 7,21, 0,24,10.00,20.00,SummerDesignDay
8,10.837734778324489
10,2081177.1905406083
2,1, 7,21, 0,24,20.00,30.00,SummerDesignDay
8,10.783821272645837
10,2515111.476214128
2,1, 7,21, 0,24,30.00,40.00,SummerDesignDay
8,10.729796573137922
10,2081177.1905406083
2,1, 7,21, 0,24,40.00,50.00,SummerDesignDay
8,10.675670448285729
10,2081177.1905406083
2,1, 7,21, 0,24,50.00,60.00,SummerDesignDay
8,10.621438656817265
10,2081177.1905406083
2,1, 7,21, 0,24, 0.00,60.00,SummerDesignDay
543,25.08139410423581
583,25.44510281417473
623,26.41295670604573
663,26.546456892302158
703,25.65278275954741
743,27.396581065112306
3,1, 7,21, 0,SummerDesignDay
544,27.618587467797864,24.340008176614277,15,60,30.794182996163284, 5,30
584,37.010070276879279,30.959597163313409, 6,60,45.19502462964359,17,10
624,35.00486013543781,29.595692981181239, 2,30,41.036645991546,17,10
664,34.87948894181556,27.06076194837329, 6,60,41.469572213328749,17,10
704,36.04627345368934,29.75422378468322, 6,60,43.15538673497819,16,60
744,34.235592287639658,28.06440873296771, 1,20,41.208464331777999,15,60
4,1, 7
7,19.640374999999997,14.399999999999999,21, 5,60,25.7,21,14,60
1,WHITEHORSE INTL AP ANN HTG 99.6% CONDNS DB,  60.71,-135.07,  -8.00, 706.20
2,1, 1,21, 0, 1, 0.00,10.00,WinterDesignDay
8,-39.7
10,12502755.423045049
2,1, 1,21, 0, 1,10.00,20.00,WinterDesignDay
8,-39.7
10,12563750.981031593
2,1, 1,21, 0, 1,20.00,30.00,WinterDesignDay
8,-39.7
10,12623039.40106982
2,1, 1,21, 0, 1,30.00,40.00,WinterDesignDay
8,-39.7
10,13116701.032671992
2,1, 1,21, 0, 1,40.00,50.00,WinterDesignDay
8,-39.7
10,12736414.556593698
2,1, 1,21, 0, 1,50.00,60.00,WinterDesignDay
8,-39.7
10,12790643.325154145
2,1, 1,21, 0, 1, 0.00,60.00,WinterDesignDay
543,11.768525115677044
583,18.000040565406203
623,18.000149661000248
663,18.000137205431746
703,18.000183825168454
743,18.000131741541109
2,1, 1,21, 0, 2, 0.00,10.00,WinterDesignDay
8,-39.7
10,12844123.726069529
2,1, 1,21, 0, 2,10.00,20.00,WinterDesignDay
8,-39.7
10,13331282.062973332
2,1, 1,21, 0, 2,20.00,30.00,WinterDesignDay
8,-39.7
10,12947949.460650854
2,1, 1,21, 0, 2,30.00,40.00,WinterDesignDay
8,-39.7
10,12998309.224482295
2,1, 1,21, 0, 2,40.00,50.00,WinterDesignDay
8,-39.7
10,13048232.441660172
2,1, 1,21, 0, 2,50.00,60.00,WinterDesignDay
8,-39.7
10,13530374.375366483
2,1, 1,21, 0, 2, 0.00,60.00,WinterDesignDay
543,11.548890374307002
583,18.000040746996043
623,18.000123230692116
663,18.00011416390123
703,18.000148027708844
743,18.000110122331927
2,1, 1,21, 0, 3, 0.00,10.00,WinterDesignDay
8,-39.7
10,13145669.586618312
2,1, 1,21, 0, 3,10.00,20.00,WinterDesignDay
8,-39.7
10,13193278.606224211
2,1, 1,21, 0, 3,20.00,30.00,WinterDesignDay
8,-39.7
10,13240518.910115652
2,1, 1,21, 0, 3,30.00,40.00,WinterDesignDay
8,-39.7
10,13717806.484433789
2,1, 1,21, 0, 3,40.00,50.00,WinterDesignDay
8,-39.7
10,13332778.210775279
2,1, 1,21, 0, 3,50.00,60.00,WinterDesignDay
8,-39.7
10,13378090.491544234
2,1, 1,21, 0, 3, 0.00,60.00,WinterDesignDay
543,11.3449479137619
583,18.00003866459878
623,18.000102549061947
663,18.000095760984757
703,18.00012122352065
743,18.000092713673288
2,1, 1,21, 0, 4, 0.00,10.00,WinterDesignDay
8,-39.7
10,13619654.394720287
2,1, 1,21, 0, 4,10.00,20.00,WinterDesignDay
8,-39.7
10,13703516.98774159
2,1, 1,21, 0, 4,20.00,30.00,WinterDesignDay
8,-39.7
10,13510581.251466595
2,1, 1,21, 0, 4,30.00,40.00,WinterDesignDay
8,-39.7
10,13553725.160043806
2,1, 1,21, 0, 4,40.00,50.00,WinterDesignDay
8,-39.7
10,14022146.274828472
2,1, 1,21, 0, 4,50.00,60.00,WinterDesignDay
8,-39.7
10,13649968.94332985
2,1, 1,21, 0, 4, 0.00,60.00,WinterDesignDay
543,11.157311473211573
583,18.00003629260074
623,18.000086640846047
663,18.000081323809576
703,18.000101597766187
743,18.000078933026626
2,1, 1,21, 0, 5, 0.00,10.00,WinterDesignDay
8,-39.7
10,13679608.178960003
2,1, 1,21, 0, 5,10.00,20.00,WinterDesignDay
8,-39.7
10,13720657.262464868
2,1, 1,21, 0, 5,20.00,30.00,WinterDesignDay
8,-39.7
10,14197340.952482323
2,1, 1,21, 0, 5,30.00,40.00,WinterDesignDay
8,-39.7
10,13801124.203111433
2,1, 1,21, 0, 5,40.00,50.00,WinterDesignDay
8,-39.7
10,13840213.31645726
2,1, 1,21, 0, 5,50.00,60.00,WinterDesignDay
8,-39.7
10,13879198.090557743
2,1, 1,21, 0, 5, 0.00,60.00,WinterDesignDay
543,10.985937988923802
583,18.000034339134826
623,18.000074529124818
663,18.000070106019448
703,18.000087440208224
743,18.000068121600596
2,1, 1,21, 0, 6, 0.00,10.00,WinterDesignDay
8,-39.7
10,14352357.623013508
2,1, 1,21, 0, 6,10.00,20.00,WinterDesignDay
8,-39.7
10,13955485.286840536
2,1, 1,21, 0, 6,20.00,30.00,WinterDesignDay
8,-39.7
10,13992627.32763533
2,1, 1,21, 0, 6,30.00,40.00,WinterDesignDay
8,-39.7
10,14029612.211464793
2,1, 1,21, 0, 6,40.00,50.00,WinterDesignDay
8,-39.7
10,14499023.369521067
2,1, 1,21, 0, 6,50.00,60.00,WinterDesignDay
8,-39.7
10,14101836.004239815
2,1, 1,21, 0, 6, 0.00,60.00,WinterDesignDay
543,10.827831878143135
583,18.000033029654657
623,18.000065393433329
663,18.000061460395235
703,18.000077376338568
743,18.000059702962984
2,1, 1,21, 0, 7, 0.00,10.00,WinterDesignDay
8,-39.7
10,19002624.001266295
2,1, 1,21, 0, 7,10.00,20.00,WinterDesignDay
8,-39.7
10,15298851.135393899
2,1, 1,21, 0, 7,20.00,30.00,WinterDesignDay
8,-39.7
10,20021122.46095254
2,1, 1,21, 0, 7,30.00,40.00,WinterDesignDay
8,-39.7
10,18427684.62040613
2,1, 1,21, 0, 7,40.00,50.00,WinterDesignDay
8,-39.7
10,18225305.68412518
2,1, 1,21, 0, 7,50.00,60.00,WinterDesignDay
8,-39.7
10,18304146.866773897
2,1, 1,21, 0, 7, 0.00,60.00,WinterDesignDay
543,10.691527552035716
583,19.9728304116715
623,20.001303461641187
663,19.999772803513193
703,19.98517264915747
743,19.999310616855707
2,1, 1,21, 0, 8, 0.00,10.00,WinterDesignDay
8,-39.7
10,23582750.45871717
2,1, 1,21, 0, 8,10.00,20.00,WinterDesignDay
8,-39.7
10,20107875.657870957
2,1, 1,21, 0, 8,20.00,30.00,WinterDesignDay
8,-39.7
10,24355309.58230236
2,1, 1,21, 0, 8,30.00,40.00,WinterDesignDay
8,-39.7
10,22696643.87464923
2,1, 1,21, 0, 8,40.00,50.00,WinterDesignDay
8,-39.7
10,22815257.458559757
2,1, 1,21, 0, 8,50.00,60.00,WinterDesignDay
8,-39.7
10,22126532.5231017
2,1, 1,21, 0, 8, 0.00,60.00,WinterDesignDay
543,10.639587285858758
583,21.968280569679405
623,21.991212075782188
663,21.996271776155326
703,21.97955028962401
743,21.995993537865986
2,1, 1,21, 0, 9, 0.00,10.00,WinterDesignDay
8,-39.7
10,24115028.695158788
2,1, 1,21, 0, 9,10.00,20.00,WinterDesignDay
8,-39.7
10,23786441.09868533
2,1, 1,21, 0, 9,20.00,30.00,WinterDesignDay
8,-39.7
10,23543644.831525819
2,1, 1,21, 0, 9,30.00,40.00,WinterDesignDay
8,-39.7
10,23188199.59144883
2,1, 1,21, 0, 9,40.00,50.00,WinterDesignDay
8,-39.7
10,23025642.153343589
2,1, 1,21, 0, 9,50.00,60.00,WinterDesignDay
8,-39.7
10,22885932.86583676
2,1, 1,21, 0, 9, 0.00,60.00,WinterDesignDay
543,10.731991595229287
583,22.000330935507919
623,22.000390587142375
663,22.000353579368555
703,22.000504824767295
743,22.00033279387777
2,1, 1,21, 0,10, 0.00,10.00,WinterDesignDay
8,-39.7
10,22903819.2346383
2,1, 1,21, 0,10,10.00,20.00,WinterDesignDay
8,-39.7
10,22757618.60056059
2,1, 1,21, 0,10,20.00,30.00,WinterDesignDay
8,-39.7
10,22639587.639907317
2,1, 1,21, 0,10,30.00,40.00,WinterDesignDay
8,-39.7
10,22679466.42221795
2,1, 1,21, 0,10,40.00,50.00,WinterDesignDay
8,-39.7
10,22605932.605938186
2,1, 1,21, 0,10,50.00,60.00,WinterDesignDay
8,-39.7
10,22520044.8326676
2,1, 1,21, 0,10, 0.00,60.00,WinterDesignDay
543,10.922329620606306
583,22.000516653763538
623,22.0006074179673
663,22.000535618932266
703,22.00083595534878
743,22.000498755266706
2,1, 1,21, 0,11, 0.00,10.00,WinterDesignDay
8,-39.7
10,22647680.472139379
2,1, 1,21, 0,11,10.00,20.00,WinterDesignDay
8,-39.7
10,22764640.15932776
2,1, 1,21, 0,11,20.00,30.00,WinterDesignDay
8,-39.7
10,22695476.482155216
2,1, 1,21, 0,11,30.00,40.00,WinterDesignDay
8,-39.7
10,22628896.53256536
2,1, 1,21, 0,11,40.00,50.00,WinterDesignDay
8,-39.7
10,22564930.404226386
2,1, 1,21, 0,11,50.00,60.00,WinterDesignDay
8,-39.7
10,22503084.405714986
2,1, 1,21, 0,11, 0.00,60.00,WinterDesignDay
543,11.131166291735989
583,22.000633646470094
623,22.00077170537368
663,22.000672066577889
703,22.001089221810465
743,22.00062246353221
2,1, 1,21, 0,12, 0.00,10.00,WinterDesignDay
8,-39.7
10,22443090.716721924
2,1, 1,21, 0,12,10.00,20.00,WinterDesignDay
8,-39.7
10,22384741.24722858
2,1, 1,21, 0,12,20.00,30.00,WinterDesignDay
8,-39.7
10,22327871.360479397
2,1, 1,21, 0,12,30.00,40.00,WinterDesignDay
8,-39.7
10,22272352.214208474
2,1, 1,21, 0,12,40.00,50.00,WinterDesignDay
8,-39.7
10,22218083.084733547
2,1, 1,21, 0,12,50.00,60.00,WinterDesignDay
8,-39.7
10,22164984.453811539
2,1, 1,21, 0,12, 0.00,60.00,WinterDesignDay
543,11.328425670252344
583,22.000726990900163
623,22.000914493732286
663,22.000790847252188
703,22.001311129328689
743,22.000730374569377
2,1, 1,21, 0,13, 0.00,10.00,WinterDesignDay
8,-39.7
10,22476433.03451191
2,1, 1,21, 0,13,10.00,20.00,WinterDesignDay
8,-39.7
10,22437710.299301097
2,1, 1,21, 0,13,20.00,30.00,WinterDesignDay
8,-39.7
10,22395184.278501728
2,1, 1,21, 0,13,30.00,40.00,WinterDesignDay
8,-39.7
10,22351902.04012561
2,1, 1,21, 0,13,40.00,50.00,WinterDesignDay
8,-39.7
10,22308435.62183723
2,1, 1,21, 0,13,50.00,60.00,WinterDesignDay
8,-39.7
10,22265047.236060684
2,1, 1,21, 0,13, 0.00,60.00,WinterDesignDay
543,11.506232222497509
583,22.00082120191091
623,22.00094422262261
663,22.00080940815441
703,22.001382819783545
743,22.00074568859303
2,1, 1,21, 0,14, 0.00,10.00,WinterDesignDay
8,-39.7
10,22221918.15050747
2,1, 1,21, 0,14,10.00,20.00,WinterDesignDay
8,-39.7
10,22179179.36031125
2,1, 1,21, 0,14,20.00,30.00,WinterDesignDay
8,-39.7
10,22136924.082039566
2,1, 1,21, 0,14,30.00,40.00,WinterDesignDay
8,-39.7
10,22095217.684606684
2,1, 1,21, 0,14,40.00,50.00,WinterDesignDay
8,-39.7
10,22054105.311764175
2,1, 1,21, 0,14,50.00,60.00,WinterDesignDay
8,-39.7
10,22013617.40250192
2,1, 1,21, 0,14, 0.00,60.00,WinterDesignDay
543,11.665334408369825
583,22.000761860033689
623,22.000928253120976
663,22.00079631384412
703,22.001354326601704
743,22.000733896929075
2,1, 1,21, 0,15, 0.00,10.00,WinterDesignDay
8,-39.7
10,21610616.8318125
2,1, 1,21, 0,15,10.00,20.00,WinterDesignDay
8,-39.7
10,21559349.900167616
2,1, 1,21, 0,15,20.00,30.00,WinterDesignDay
8,-39.7
10,21513522.141666794
2,1, 1,21, 0,15,30.00,40.00,WinterDesignDay
8,-39.7
10,21470061.882119854
2,1, 1,21, 0,15,40.00,50.00,WinterDesignDay
8,-39.7
10,21428376.89588423
2,1, 1,21, 0,15,50.00,60.00,WinterDesignDay
8,-39.7
10,21388176.997102038
2,1, 1,21, 0,15, 0.00,60.00,WinterDesignDay
543,11.808565672729353
583,22.000612528229536
623,22.000951050542118
663,22.000821730640327
703,22.00135974186901
743,22.000758589264437
2,1, 1,21, 0,16, 0.00,10.00,WinterDesignDay
8,-39.7
10,21349252.512018425
2,1, 1,21, 0,16,10.00,20.00,WinterDesignDay
8,-39.7
10,21311444.643448179
2,1, 1,21, 0,16,20.00,30.00,WinterDesignDay
8,-39.7
10,21274632.605378227
2,1, 1,21, 0,16,30.00,40.00,WinterDesignDay
8,-39.7
10,21238723.610348207
2,1, 1,21, 0,16,40.00,50.00,WinterDesignDay
8,-39.7
10,21203645.31224591
2,1, 1,21, 0,16,50.00,60.00,WinterDesignDay
8,-39.7
10,21169340.361914267
2,1, 1,21, 0,16, 0.00,60.00,WinterDesignDay
543,11.939709078385638
583,22.000581793330736
623,22.000991486088613
663,22.000857131099804
703,22.00141436085272
743,22.0007913896128
2,1, 1,21, 0,17, 0.00,10.00,WinterDesignDay
8,-39.7
10,21135762.55174353
2,1, 1,21, 0,17,10.00,20.00,WinterDesignDay
8,-39.7
10,21139787.319830408
2,1, 1,21, 0,17,20.00,30.00,WinterDesignDay
8,-39.7
10,21101670.799972089
2,1, 1,21, 0,17,30.00,40.00,WinterDesignDay
8,-39.7
10,21064381.79249053
2,1, 1,21, 0,17,40.00,50.00,WinterDesignDay
8,-39.7
10,20557093.987058559