Program Version,EnergyPlus, Version 9.1.0-fafb9d5652, YMD=2019.10.28 18:37
1,5,Environment Title[],Latitude[deg],Longitude[deg],Time Zone[],Elevation[m]
2,8,Day of Simulation[],Month[],Day of Month[],DST Indicator[1=yes 0=no],Hour[],StartMinute[],EndMinute[],DayType
3,5,Cumulative Day of Simulation[],Month[],Day of Month[],DST Indicator[1=yes 0=no],DayType  ! When Daily Report Variables Requested
4,2,Cumulative Days of Simulation[],Month[]  ! When Monthly Report Variables Requested
5,1,Cumulative Days of Simulation[] ! When Run Period Report Variables Requested
6,1,Calendar Year of Simulation[] ! When Annual Report Variables Requested
7,9,Environment,Site Outdoor Air Drybulb Temperature [C] !Monthly [Value,Min,Day,Hour,Minute,Max,Day,Hour,Minute]
8,1,Environment,Site Outdoor Air Wetbulb Temperature [C] !TimeStep
745,1,ALL_ST=WHOLEBUILDING_FL=STORY 1_SCH=A,Zone Air Temperature [C] !Hourly
746,7,ALL_ST=WHOLEBUILDING_FL=STORY 1_SCH=A,Zone Air Relative Humidity [%] !Daily [Value,Min,Hour,Minute,Max,Hour,Minute]
785,1,ALL_ST=WHOLEBUILDING_FL=STORY 1_SCH=A 1,Zone Air Temperature [C] !Hourly
786,7,ALL_ST=WHOLEBUILDING_FL=STORY 1_SCH=A 1,Zone Air Relative Humidity [%] !Daily [Value,Min,Hour,Minute,Max,Hour,Minute]
825,1,ALL_ST=WHOLEBUILDING_FL=STORY 1_SCH=A 2,Zone Air Temperature [C] !Hourly
826,7,ALL_ST=WHOLEBUILDING_FL=STORY 1_SCH=A 2,Zone Air Relative Humidity [%] !Daily [Value,Min,Hour,Minute,Max,Hour,Minute]
865,1,ALL_ST=WHOLEBUILDING_FL=STORY 1_SCH=A 3,Zone Air Temperature [C] !Hourly
866,7,ALL_ST=WHOLEBUILDING_FL=STORY 1_SCH=A 3,Zone Air Relative Humidity [%] !Daily [Value,Min,Hour,Minute,Max,Hour,Minute]
905,1,ALL_ST=WHOLEBUILDING_FL=STORY 1_SCH=A 4,Zone Air Temperature [C] !Hourly
906,7,ALL_ST=WHOLEBUILDING_FL=STORY 1_SCH=A 4,Zone Air Relative Humidity [%] !Daily [Value,Min,Hour,Minute,Max,Hour,Minute]
945,1,ALL_ST=WHOLEBUILDING_FL=STORY 2_SCH=A,Zone Air Temperature [C] !Hourly
946,7,ALL_ST=WHOLEBUILDING_FL=STORY 2_SCH=A,Zone Air Relative Humidity [%] !Daily [Value,Min,Hour,Minute,Max,Hour,Minute]
985,1,ALL_ST=WHOLEBUILDING_FL=STORY 2_SCH=A 1,Zone Air Temperature [C] !Hourly
986,7,ALL_ST=WHOLEBUILDING_FL=STORY 2_SCH=A 1,Zone Air Relative Humidity [%] !Daily [Value,Min,Hour,Minute,Max,Hour,Minute]
1025,1,ALL_ST=WHOLEBUILDING_FL=STORY 2_SCH=A 2,Zone Air Temperature [C] !Hourly
1026,7,ALL_ST=WHOLEBUILDING_FL=STORY 2_SCH=A 2,Zone Air Relative Humidity [%] !Daily [Value,Min,Hour,Minute,Max,Hour,Minute]
1065,1,ALL_ST=WHOLEBUILDING_FL=STORY 2_SCH=A 3,Zone Air Temperature [C] !Hourly
1066,7,ALL_ST=WHOLEBUILDING_FL=STORY 2_SCH=A 3,Zone Air Relative Humidity [%] !Daily [Value,Min,Hour,Minute,Max,Hour,Minute]
1105,1,ALL_ST=WHOLEBUILDING_FL=STORY 2_SCH=A 4,Zone Air Temperature [C] !Hourly
1106,7,ALL_ST=WHOLEBUILDING_FL=STORY 2_SCH=A 4,Zone Air Relative Humidity [%] !Daily [Value,Min,Hour,Minute,Max,Hour,Minute]
10,1,Electricity:Facility [J] !TimeStep
511,1,Gas:Facility [J] !TimeStep
End of Data Dictionary
1,OTTAWA=MACDONALD-CARTIER INTL ANN CLG .4% CONDNS DB=>MWB,  45.32, -75.67,  -5.00, 114.90
2,1, 7,21, 0, 1, 0.00,10.00,SummerDesignDay
8,19.2840458690032
10,32932134.726203577
511,76651.2327170184
2,1, 7,21, 0, 1,10.00,20.00,SummerDesignDay
8,19.25220058801155
10,32932134.726203577
511,76651.2327170184
2,1, 7,21, 0, 1,20.00,30.00,SummerDesignDay
8,19.2203165671003
10,32932134.726203577
511,76651.2327170184
2,1, 7,21, 0, 1,30.00,40.00,SummerDesignDay
8,19.188388626363016
10,32932134.726203577
511,76651.2327170184
2,1, 7,21, 0, 1,40.00,50.00,SummerDesignDay
8,19.15642770709394
10,32932134.726203577
511,76651.2327170184
2,1, 7,21, 0, 1,50.00,60.00,SummerDesignDay
8,19.124427397166604
10,32932134.726203577
511,3072158.363086786
2,1, 7,21, 0, 1, 0.00,60.00,SummerDesignDay
745,25.223415330795974
785,27.424680144716324
825,25.33784878122957
865,25.823788289670117
905,26.28312208144709
945,26.178789506345408
985,25.352263323770388
1025,27.026901847527375
1065,25.811440765571775
1105,25.264388132512747
2,1, 7,21, 0, 2, 0.00,10.00,SummerDesignDay
8,19.103070457286994
10,32932134.726203577
511,13779723.986600902
2,1, 7,21, 0, 2,10.00,20.00,SummerDesignDay
8,19.08170119193842
10,32932134.726203577
511,76651.2327170184
2,1, 7,21, 0, 2,20.00,30.00,SummerDesignDay
8,19.06030939273045
10,32932134.726203577
511,76651.2327170184
2,1, 7,21, 0, 2,30.00,40.00,SummerDesignDay
8,19.03890076386851
10,32932134.726203577
511,76651.2327170184
2,1, 7,21, 0, 2,40.00,50.00,SummerDesignDay
8,19.01747444558601
10,32932134.726203577
511,76651.2327170184
2,1, 7,21, 0, 2,50.00,60.00,SummerDesignDay
8,18.996036037989819
10,32932134.726203577
511,76651.2327170184
2,1, 7,21, 0, 2, 0.00,60.00,SummerDesignDay
745,25.02137945364154
785,27.165928650314148
825,25.1181806886789
865,25.59349668962331
905,26.06660083856678
945,25.952277482635848
985,25.095814872390226
1025,26.793774850382929
1065,25.55759245066329
1105,25.00556159886948
2,1, 7,21, 0, 3, 0.00,10.00,SummerDesignDay
8,18.97994058577143
10,32932134.726203577
511,16789742.73545424
2,1, 7,21, 0, 3,10.00,20.00,SummerDesignDay
8,18.96383509390068
10,32932134.726203577
511,76651.2327170184
2,1, 7,21, 0, 3,20.00,30.00,SummerDesignDay
8,18.947724870466826
10,32932134.726203577
511,76651.2327170184
2,1, 7,21, 0, 3,30.00,40.00,SummerDesignDay
8,18.931599991201066
10,32932134.726203577
511,76651.2327170184
2,1, 7,21, 0, 3,40.00,50.00,SummerDesignDay
8,18.915470425479847
10,32932134.726203577
511,76651.2327170184
2,1, 7,21, 0, 3,50.00,60.00,SummerDesignDay
8,18.8993255989201
10,32932134.726203577
511,76651.2327170184
2,1, 7,21, 0, 3, 0.00,60.00,SummerDesignDay
745,24.853503021980634
785,26.908779184579829
825,24.925460572692886
865,25.386020743967987
905,25.862159104596093
945,25.717579865698175
985,24.858713797664309
1025,26.53317137249375
1065,25.31543012863361
1105,24.79110326258723
2,1, 7,21, 0, 4, 0.00,10.00,SummerDesignDay
8,18.883176400800605
10,32932134.726203577
511,16867181.168903386
2,1, 7,21, 0, 4,10.00,20.00,SummerDesignDay
8,18.867011710849643
10,32932134.726203577
511,76651.2327170184
2,1, 7,21, 0, 4,20.00,30.00,SummerDesignDay
8,18.850837592647797
10,32932134.726203577
511,76651.2327170184
2,1, 7,21, 0, 4,30.00,40.00,SummerDesignDay
8,18.834658360362007
10,32932134.726203577
511,76651.2327170184
2,1, 7,21, 0, 4,40.00,50.00,SummerDesignDay
8,18.8184648850153
10,32932134.726203577
511,76651.2327170184
2,1, 7,21, 0, 4,50.00,60.00,SummerDesignDay
8,18.8022655410338
10,32932134.726203577
511,76651.2327170184
2,1, 7,21, 0, 4, 0.00,60.00,SummerDesignDay
745,24.703396820567155
785,26.663055982256365
825,24.74613935115956
865,25.194889887693618
905,25.66993188236086
945,25.49109269469842
985,24.640264362209896
1025,26.273462509710546
1065,25.08873410178934
1105,24.605876215520316
2,1, 7,21, 0, 5, 0.00,10.00,SummerDesignDay
8,18.79145567867417
10,32932134.726203577
511,16943477.858972398
2,1, 7,21, 0, 5,10.00,20.00,SummerDesignDay
8,18.780646332866213
10,32932134.726203577
511,76651.2327170184
2,1, 7,21, 0, 5,20.00,30.00,SummerDesignDay
8,18.76983296444122
10,32932134.726203577
511,76651.2327170184
2,1, 7,21, 0, 5,30.00,40.00,SummerDesignDay
8,18.75901007085189
10,32932134.726203577
511,76651.2327170184
2,1, 7,21, 0, 5,40.00,50.00,SummerDesignDay
8,18.7481869937485
10,32932134.726203577
511,76651.2327170184
2,1, 7,21, 0, 5,50.00,60.00,SummerDesignDay
8,18.737365749092537
10,32932134.726203577
511,76651.2327170184
2,1, 7,21, 0, 5, 0.00,60.00,SummerDesignDay
745,24.561504987797979
785,26.43345796675081
825,24.607353633640085
865,25.01973321096718
905,25.551492409666428
945,25.372330851346829
985,24.494010628968323
1025,26.03544032588645
1065,24.889032316850974
1105,24.443581170535408
2,1, 7,21, 0, 6, 0.00,10.00,SummerDesignDay
8,18.7481869937485
10,33123746.314008368
511,16922789.408463669
2,1, 7,21, 0, 6,10.00,20.00,SummerDesignDay
8,18.75901007085189
10,33441729.101288618
511,407650.75099009615
2,1, 7,21, 0, 6,20.00,30.00,SummerDesignDay
8,18.76983296444122
10,33281447.290512828
511,281902.45474017
2,1, 7,21, 0, 6,30.00,40.00,SummerDesignDay
8,18.780646332866213
10,33468283.74925894
511,567786.2710730252
2,1, 7,21, 0, 6,40.00,50.00,SummerDesignDay
8,18.79145567867417
10,33405347.433011503
511,464739.4776470006
2,1, 7,21, 0, 6,50.00,60.00,SummerDesignDay
8,18.8022655410338
10,33386488.12239228
511,477539.85688505027
2,1, 7,21, 0, 6, 0.00,60.00,SummerDesignDay
745,24.479678405298896
785,26.324199154023366
825,24.95478313651446
865,24.984800124324314
905,27.454648457459343
945,27.77295305980169
985,25.13435179790143
1025,26.052880380351739
1065,24.98714133101519
1105,24.481131090593665
2,1, 7,21, 0, 7, 0.00,10.00,SummerDesignDay
8,18.840052605786814
10,85592855.05680105
511,17965183.88184019
2,1, 7,21, 0, 7,10.00,20.00,SummerDesignDay
8,18.87778619489805
10,70511610.93255446
511,925908.1866487032
2,1, 7,21, 0, 7,20.00,30.00,SummerDesignDay
8,18.915470425479847
10,68811249.33748636
511,76651.2327170184
2,1, 7,21, 0, 7,30.00,40.00,SummerDesignDay
8,18.953096118062495
10,65781880.41484811
511,76651.2327170184
2,1, 7,21, 0, 7,40.00,50.00,SummerDesignDay
8,18.99066883495391
10,65820686.05355871
511,76651.2327170184
2,1, 7,21, 0, 7,50.00,60.00,SummerDesignDay
8,19.02819215483863
10,66716226.709440369
511,76651.2327170184
2,1, 7,21, 0, 7, 0.00,60.00,SummerDesignDay
745,24.004053510930217
785,24.036253957938219
825,24.025942802824149
865,24.013332149661353
905,24.29580072313645
945,24.303708893484978
985,24.029745448959564
1025,24.0177915553988
1065,24.006408512693694
1105,24.00210778905641
2,1, 7,21, 0, 8, 0.00,10.00,SummerDesignDay
8,19.119090922986229
10,112737479.21263546
511,17692407.719586877
2,1, 7,21, 0, 8,10.00,20.00,SummerDesignDay
8,19.209676482065853
10,115604796.90041895
511,76651.2327170184
2,1, 7,21, 0, 8,20.00,30.00,SummerDesignDay
8,19.299951906634847
10,117534827.41149409
511,76651.2327170184
2,1, 7,21, 0, 8,30.00,40.00,SummerDesignDay
8,19.389928824990219
10,119478172.31015668
511,12956025.044305744
2,1, 7,21, 0, 8,40.00,50.00,SummerDesignDay
8,19.4795823892733
10,121411357.80018276
511,4867534.179389378
2,1, 7,21, 0, 8,50.00,60.00,SummerDesignDay
8,19.568935475929295
10,123339741.5073762
511,76651.2327170184
2,1, 7,21, 0, 8, 0.00,60.00,SummerDesignDay
745,23.999790041987145
785,23.999882850066049
825,23.999650604828177
865,23.99980835950061
905,23.99846639931418
945,23.997973493818195
985,23.999447381162356
1025,23.999800745824687
1065,23.999672353146719
1105,23.99956376763679
2,1, 7,21, 0, 9, 0.00,10.00,SummerDesignDay
8,19.66844507688812
10,250535021.74549679
511,26980531.033842029
2,1, 7,21, 0, 9,10.00,20.00,SummerDesignDay
8,19.767573179707669
10,255495122.37722335
511,28680186.39043113
2,1, 7,21, 0, 9,20.00,30.00,SummerDesignDay
8,19.866330746445795
10,257159293.85780535
511,28686266.352772006
2,1, 7,21, 0, 9,30.00,40.00,SummerDesignDay
8,19.964711871061558
10,258997343.5307238
511,28692063.035213204
2,1, 7,21, 0, 9,40.00,50.00,SummerDesignDay
8,20.062727728864816
10,260725052.85807363
511,28697844.95312951
2,1, 7,21, 0, 9,50.00,60.00,SummerDesignDay
8,20.160375627757714
10,262389129.83153434
511,26720687.559870658
2,1, 7,21, 0, 9, 0.00,60.00,SummerDesignDay
745,23.99856086312323
785,23.99965903542152
825,23.99884468231009
865,23.999227692981518
905,23.998617193328867
945,23.99778471150603
985,23.998452295675937
1025,23.999398206267175
1065,23.9988935628905
1105,23.998171227071948
2,1, 7,21, 0,10, 0.00,10.00,SummerDesignDay
8,20.247432286023
10,289097537.2122128
511,24618647.692019565
2,1, 7,21, 0,10,10.00,20.00,SummerDesignDay
8,20.334198251055687
10,290892989.1034936
511,24598912.61863294
2,1, 7,21, 0,10,20.00,30.00,SummerDesignDay
8,20.420674889330156
10,292258519.55493488
511,24577910.51677051
2,1, 7,21, 0,10,30.00,40.00,SummerDesignDay
8,20.50686410461129
10,293590101.9202161
511,24556445.686223307
2,1, 7,21, 0,10,40.00,50.00,SummerDesignDay
8,20.59277197915242
10,294843781.540573
511,24534540.316210964
2,1, 7,21, 0,10,50.00,60.00,SummerDesignDay
8,20.67839100058158
10,295991430.0063244
511,24512180.88923592
2,1, 7,21, 0,10, 0.00,60.00,SummerDesignDay
745,23.998191088211333
785,23.99950284972059
825,23.998444493305283
865,23.998708221271785
905,23.998640065488109
945,23.997772506067166
985,23.997862991194056
1025,23.999096793213185
1065,23.998250828749677
1105,23.997714962346618
2,1, 7,21, 0,11, 0.00,10.00,SummerDesignDay
8,20.75370382828009
10,297009840.5295884
511,60941408.31899509
2,1, 7,21, 0,11,10.00,20.00,SummerDesignDay
8,20.82879725584293
10,298997145.8337387
511,40739430.03810903
2,1, 7,21, 0,11,20.00,30.00,SummerDesignDay
8,20.90366855164364
10,300155178.78686347
511,40710098.71354557
2,1, 7,21, 0,11,30.00,40.00,SummerDesignDay
8,20.978327197140595
10,301442889.89969906
511,60941408.31899509
2,1, 7,21, 0,11,40.00,50.00,SummerDesignDay
8,21.052770435649987
10,302715661.66661527
511,40730482.02737481
2,1, 7,21, 0,11,50.00,60.00,SummerDesignDay
8,21.126998315025806
10,304015691.5505929
511,49040066.874106917
2,1, 7,21, 0,11, 0.00,60.00,SummerDesignDay
745,23.998232211772274
785,23.9994269309551
825,23.998309560051497
865,23.998230184157653
905,23.99897020836868
945,23.998273707228099
985,23.997597832528148
1025,23.998943369137526
1065,23.99771867870434
1105,23.997625450583496
2,1, 7,21, 0,12, 0.00,10.00,SummerDesignDay
8,21.176364764512436
10,305081170.91543599
511,52612485.92757031
2,1, 7,21, 0,12,10.00,20.00,SummerDesignDay
8,21.225636252128049
10,306101676.70821747
511,40722003.106021489
2,1, 7,21, 0,12,20.00,30.00,SummerDesignDay
8,21.27481408813442
10,307187677.18455865
511,60913953.918585117
2,1, 7,21, 0,12,30.00,40.00,SummerDesignDay
8,21.32389714161367
10,308251957.6873131
511,40766034.72809977
2,1, 7,21, 0,12,40.00,50.00,SummerDesignDay
8,21.372882039030619
10,309239716.00110486
511,40710902.361468669
2,1, 7,21, 0,12,50.00,60.00,SummerDesignDay
8,21.421778222706306
10,310230505.0812853
511,60941408.31899509
2,1, 7,21, 0,12, 0.00,60.00,SummerDesignDay
745,23.998130271243516
785,23.999367436972177
825,23.998131895103645
865,23.99786078624804
905,23.999100298302154
945,23.99852835452471
985,23.99737203745515
1025,23.998842642555464
1065,23.99727481552218
1105,23.997431486078033
2,1, 7,21, 0,13, 0.00,10.00,SummerDesignDay
8,21.460829759656176
10,307274116.17358466
511,40731024.17801033
2,1, 7,21, 0,13,10.00,20.00,SummerDesignDay
8,21.499817003159384
10,307836985.3621915
511,48213104.627794299
2,1, 7,21, 0,13,20.00,30.00,SummerDesignDay
8,21.53875017563149
10,308474186.17404457
511,53438144.126323889
2,1, 7,21, 0,13,30.00,40.00,SummerDesignDay
8,21.57761871831439
10,309001518.66010269
511,40722674.9241969
2,1, 7,21, 0,13,40.00,50.00,SummerDesignDay
8,21.616433450967234
10,309590681.62190398
511,60082535.78992466
2,1, 7,21, 0,13,50.00,60.00,SummerDesignDay
8,21.655184624488759
10,310205446.22842046
511,41595398.86391271
2,1, 7,21, 0,13, 0.00,60.00,SummerDesignDay
745,23.998378116629409
785,23.999419250047013
825,23.99828622640608
865,23.998188338623849
905,23.999197360375605
945,23.998684187982226
985,23.997554344563019
1025,23.998908303802354
1065,23.997682861440379
1105,23.997694636432287
2,1, 7,21, 0,14, 0.00,10.00,SummerDesignDay
8,21.67937576104208
10,310647204.06086066
511,40711769.67321465
2,1, 7,21, 0,14,10.00,20.00,SummerDesignDay
8,21.703544513972305
10,311208122.7877698
511,60941408.31899509
2,1, 7,21, 0,14,20.00,30.00,SummerDesignDay
8,21.727690125397957
10,311796807.89300516
511,40731563.82666485
2,1, 7,21, 0,14,30.00,40.00,SummerDesignDay
8,21.751812391480358
10,312457225.0695179
511,47388887.78022664
2,1, 7,21, 0,14,40.00,50.00,SummerDesignDay
8,21.7759121945202
10,313206196.5802867
511,54261207.78223781
2,1, 7,21, 0,14,50.00,60.00,SummerDesignDay
8,21.799989308895414
10,313925002.5880281
511,40723331.61710035
2,1, 7,21, 0,14, 0.00,60.00,SummerDesignDay
745,23.99845703057022
785,23.99925065553235
825,23.99836213817945
865,23.99846565979151
905,23.99923006668986
945,23.99874069580694
985,23.997686598304069
1025,23.998735826248806
1065,23.99780123704724
1105,23.99788208242617
2,1, 7,21, 0,15, 0.00,10.00,SummerDesignDay
8,21.799989308895414
10,318104963.64020577
511,59253980.02267241
2,1, 7,21, 0,15,10.00,20.00,SummerDesignDay
8,21.799989308895414
10,318874592.6440803
511,42421876.88576034
2,1, 7,21, 0,15,20.00,30.00,SummerDesignDay
8,21.799989308895414
10,319446284.99253359
511,40712620.307156208
2,1, 7,21, 0,15,30.00,40.00,SummerDesignDay
8,21.799989308895414
10,319968811.81822267
511,60941408.31899509
2,1, 7,21, 0,15,40.00,50.00,SummerDesignDay
8,21.799989308895414
10,320309140.2369481
511,40732100.833999928
2,1, 7,21, 0,15,50.00,60.00,SummerDesignDay
8,21.799989308895414
10,320515080.64411017
511,46567616.75352595
2,1, 7,21, 0,15, 0.00,60.00,SummerDesignDay
745,23.998116889660765
785,23.998467471576864
825,23.998107630977314
865,23.998452033858553
905,23.999124600684025
945,23.99866025264336
985,23.99756366842175
1025,23.997872802128229
1065,23.997903464643234
1105,23.997685538752355
2,1, 7,21, 0,16, 0.00,10.00,SummerDesignDay
8,21.771094855856704
10,320261598.3413207
511,55081487.69907769
2,1, 7,21, 0,16,10.00,20.00,SummerDesignDay
8,21.742168014681356
10,319817641.6036283
511,40723973.19617721
2,1, 7,21, 0,16,20.00,30.00,SummerDesignDay
8,21.71320780280698
10,319311626.21855637
511,58428426.10963522
2,1, 7,21, 0,16,30.00,40.00,SummerDesignDay
8,21.68421463192507
10,318700643.4256213
511,43245342.165114719
2,1, 7,21, 0,16,40.00,50.00,SummerDesignDay
8,21.655184624488759
10,317937810.0032146
511,40713454.317432317
2,1, 7,21, 0,16,50.00,60.00,SummerDesignDay
8,21.6261256071541
10,317138804.2703939
511,60941408.31899509
2,1, 7,21, 0,16, 0.00,60.00,SummerDesignDay
745,23.997876165954023
785,23.997938959181274
825,23.99794167828739
865,23.998495856125716
905,23.999087279521207
945,23.99868562863755
985,23.997536296441287
1025,23.9972513551623
1065,23.998089741703809
1105,23.997654062243375
2,1, 7,21, 0,17, 0.00,10.00,SummerDesignDay
8,21.587330220761357
10,316092109.3180542
511,35690510.447448659
2,1, 7,21, 0,17,10.00,20.00,SummerDesignDay
8,21.548471336507889
10,314442613.76820018
511,34958662.62033339
2,1, 7,21, 0,17,20.00,30.00,SummerDesignDay
8,21.509558190151649
10,313127354.53595426
511,34944653.77900185
2,1, 7,21, 0,17,30.00,40.00,SummerDesignDay
8,21.470581299934044
10,311733231.3312473
511,34930761.3905602
2,1, 7,21, 0,17,40.00,50.00,SummerDesignDay
8,21.431549204917386
10,310329587.1132378
511,34916678.6844266
2,1, 7,21, 0,17,50.00,60.00,SummerDesignDay
8,21.392452600030727
10,308920599.7440294
511,39950155.362702678
2,1, 7,21, 0,17, 0.00,60.00,SummerDesignDay
745,23.997821675529296
785,23.99790464285634
825,23.998016114355836
865,23.998622878951669
905,23.999155043647368
945,23.99885053944864
985,23.99783394756596
1025,23.99722968184581
1065,23.998387983064306
1105,23.997903768152715
2,1, 7,21, 0,18, 0.00,10.00,SummerDesignDay
8,21.343500800253975
10,293499782.2698045
511,29589578.034740949
2,1, 7,21, 0,18,10.00,20.00,SummerDesignDay
8,21.29445517999728
10,291111908.1511926
511,28670969.01586094
2,1, 7,21, 0,18,20.00,30.00,SummerDesignDay
8,21.24531961332415
10,289301613.4678668
511,28676653.043884703
2,1, 7,21, 0,18,30.00,40.00,SummerDesignDay
8,21.196085706061159
10,287451946.97655346
511,28682398.99475832
2,1, 7,21, 0,18,40.00,50.00,SummerDesignDay
8,21.146756926413827
10,285623775.5544047
511,28688170.5937121
2,1, 7,21, 0,18,50.00,60.00,SummerDesignDay
8,21.097333755216899
10,283812684.79235789
511,28693948.60244993
2,1, 7,21, 0,18, 0.00,60.00,SummerDesignDay
745,23.998215356579438
785,23.998299602852855
825,23.998327209303957
865,23.99890945239642
905,23.999339578722119
945,23.999134604164124
985,23.998304760574244
1025,23.997701880900605
1065,23.998800108629358
1105,23.99846970217121
2,1, 7,21, 0,19, 0.00,10.00,SummerDesignDay
8,21.023019732832933
10,197207487.831172
511,11988263.79253477
2,1, 7,21, 0,19,10.00,20.00,SummerDesignDay
8,20.948490549703029
10,193276788.82634817
511,10223084.745100603
2,1, 7,21, 0,19,20.00,30.00,SummerDesignDay
8,20.873745184382885
10,190843773.6656573
511,21799087.67139092
2,1, 7,21, 0,19,30.00,40.00,SummerDesignDay
8,20.798782612519024
10,188203534.1008614
511,21885332.89489924
2,1, 7,21, 0,19,40.00,50.00,SummerDesignDay
8,20.723605634987398
10,185603920.53298588
511,8180152.373718222
2,1, 7,21, 0,19,50.00,60.00,SummerDesignDay
8,20.648205443782066
10,182964132.64575023
511,13726230.049571943
2,1, 7,21, 0,19, 0.00,60.00,SummerDesignDay
745,23.999299502442346
785,23.999090241473515
825,23.998981461912366
865,23.999437870681019
905,23.999648189854555
945,23.999523430084925
985,23.99896941174451
1025,23.998649985453857
1065,23.999360465406217
1105,23.999377169905669
2,1, 7,21, 0,20, 0.00,10.00,SummerDesignDay
8,20.59277197915242
10,131616844.26656318
511,19719721.279315294
2,1, 7,21, 0,20,10.00,20.00,SummerDesignDay
8,20.537219972964399
10,127719741.60292506
511,76651.2327170184
2,1, 7,21, 0,20,20.00,30.00,SummerDesignDay
8,20.48154799091199
10,124789041.93241932
511,19470259.400841204
2,1, 7,21, 0,20,30.00,40.00,SummerDesignDay
8,20.425752225515759
10,121747288.59211263
511,5180839.384826594
2,1, 7,21, 0,20,40.00,50.00,SummerDesignDay
8,20.369840248455387
10,119776972.3822163
511,14373832.050055379
2,1, 7,21, 0,20,50.00,60.00,SummerDesignDay
8,20.313807280186916
10,118287528.3237781
511,16639562.13902164
2,1, 7,21, 0,20, 0.00,60.00,SummerDesignDay
745,23.99979926854414
785,23.999739885665318
825,23.999606288263917
865,23.999763452490418
905,23.999840600521599
945,23.999771950373459
985,23.999552328612749
1025,23.999532913412364
1065,23.99971361789228
1105,23.99979254752328
2,1, 7,21, 0,21, 0.00,10.00,SummerDesignDay
8,20.267875513679358
10,117027956.80427319
511,3032580.221951432
2,1, 7,21, 0,21,10.00,20.00,SummerDesignDay
8,20.221856772507928
10,115891655.87570404
511,19574520.452708376
2,1, 7,21, 0,21,20.00,30.00,SummerDesignDay
8,20.17575730066602
10,114814312.8097943
511,76651.2327170184
2,1, 7,21, 0,21,30.00,40.00,SummerDesignDay
8,20.129575525226004
10,113798861.00477067
511,19530107.705679884
2,1, 7,21, 0,21,40.00,50.00,SummerDesignDay
8,20.08331608345884
10,112814124.72015204
511,76651.2327170184
2,1, 7,21, 0,21,50.00,60.00,SummerDesignDay
8,20.03696962431749
10,111858351.84025589
511,19483174.620817987
2,1, 7,21, 0,21, 0.00,60.00,SummerDesignDay
745,23.999894387602838
785,23.999880374870899
825,23.999852521925516
865,23.999852992858064
905,23.99989726085711
945,23.999852313909114
985,23.999807696650895
1025,23.999794696545096
1065,23.999820853003106
1105,23.999860912969777
2,1, 7,21, 0,22, 0.00,10.00,SummerDesignDay
8,19.99054090879275
10,39930175.979168299
511,1497232.3599392914
2,1, 7,21, 0,22,10.00,20.00,SummerDesignDay
8,19.944033557607388
10,39130001.806606497
511,20426791.978751504
2,1, 7,21, 0,22,20.00,30.00,SummerDesignDay
8,19.89743885871503
10,38904435.81955744
511,14874297.079198914
2,1, 7,21, 0,22,30.00,40.00,SummerDesignDay
8,19.850760861623937
10,38300319.13536215
511,9906107.342116502
2,1, 7,21, 0,22,40.00,50.00,SummerDesignDay
8,19.804003776854694
10,40095613.41625945
511,19606953.73006527
2,1, 7,21, 0,22,50.00,60.00,SummerDesignDay
8,19.757157595162949
10,38236526.71384753
511,76651.2327170184
2,1, 7,21, 0,22, 0.00,60.00,SummerDesignDay
745,24.804538950827764
785,26.18644697830871
825,25.10133448802526
865,25.333748493593676
905,25.47144329333683
945,25.316745248676424
985,25.05085947429211
1025,25.759113185761554
1065,25.228611361487464
1105,24.857456055469755
2,1, 7,21, 0,23, 0.00,10.00,SummerDesignDay
8,19.720666551636989
10,40329033.622038129
511,76651.2327170184
2,1, 7,21, 0,23,10.00,20.00,SummerDesignDay
8,19.684119477065886
10,38267627.868837367
511,16973987.10605546
2,1, 7,21, 0,23,20.00,30.00,SummerDesignDay
8,19.647526513618759
10,38337880.86961269
511,76651.2327170184
2,1, 7,21, 0,23,30.00,40.00,SummerDesignDay
8,19.6108822727292
10,38032090.551115218
511,76651.2327170184
2,1, 7,21, 0,23,40.00,50.00,SummerDesignDay
8,19.574181717726309
10,38237874.72658537
511,76651.2327170184
2,1, 7,21, 0,23,50.00,60.00,SummerDesignDay
8,19.537434025172329
10,38032090.551115218
511,76651.2327170184
2,1, 7,21, 0,23, 0.00,60.00,SummerDesignDay
745,25.53812886070064
785,27.414014133208935
825,25.72937809047885
865,26.119106867635364
905,26.397237615570704
945,26.17034156088225
985,25.664678719754578
1025,26.843323017135849
1065,25.991430380593149
1105,25.586149292900815
2,1, 7,21, 0,24, 0.00,10.00,SummerDesignDay
8,19.50063519373203
10,32932134.726203577
511,76651.2327170184
2,1, 7,21, 0,24,10.00,20.00,SummerDesignDay
8,19.463780045562748
10,32932134.726203577
511,17058623.791097519
2,1, 7,21, 0,24,20.00,30.00,SummerDesignDay
8,19.42687776521098
10,32932134.726203577
511,76651.2327170184
2,1, 7,21, 0,24,30.00,40.00,SummerDesignDay
8,19.389928824990219
10,32932134.726203577
511,76651.2327170184
2,1, 7,21, 0,24,40.00,50.00,SummerDesignDay
8,19.352911582935034
10,32932134.726203577
511,76651.2327170184
2,1, 7,21, 0,24,50.00,60.00,SummerDesignDay
8,19.31585289854638
10,32932134.726203577
511,76651.2327170184
2,1, 7,21, 0,24, 0.00,60.00,SummerDesignDay
745,25.46335941356902
785,27.605122599348907
825,25.584990885893878
865,26.055712296627236
905,26.46931710959605
945,26.323818614789315
985,25.59470945937895
1025,27.12711382389229
1065,26.02144716355697
1105,25.537490228094439
3,1, 7,21, 0,SummerDesignDay
746,59.99446800023804,54.72494702215974,22,29,67.96588068583269, 7, 4
786,51.050962333969298,43.2099898127347,22,40,63.96473253496545, 7, 3
826,57.56918397801663,51.95458102834224,20,20,66.76458709972157, 7, 4
866,55.50544452707592,49.20709223649675,14,10,66.79071042147, 7, 3
906,51.31707268148074,42.3711474759414, 9,20,61.18427795464684, 5,40
946,51.91442497262818,42.792248380994518, 9,20,62.643094772913858, 5,40
986,56.43391426389473,50.574887265803329,14,10,66.79921137279546, 5,40
1026,51.750028630066257,44.64504029677288,18,50,65.46582005867765, 7, 3
1066,55.22512012213324,47.87642381037138,13,50,67.08697135666381, 7, 3
1106,58.77806440142462,53.416292488643758,14,10,68.00593642956477, 7, 3
4,1, 7
7,25.183875000000005,20.5,21, 5,60,30.6,21,14,60
1,OTTAWA=MACDONALD-CARTIER INTL ANN HTG 99.6% CONDNS DB,  45.32, -75.67,  -5.00, 114.90
2,1, 1,21, 0, 1, 0.00,10.00,WinterDesignDay
8,-24.2
10,32932135.731750329
511,344834982.30373337
2,1, 1,21, 0, 1,10.00,20.00,WinterDesignDay
8,-24.2
10,32932135.6311953
511,345947973.27126637
2,1, 1,21, 0, 1,20.00,30.00,WinterDesignDay
8,-24.2
10,32932135.631194965
511,347026284.37655976
2,1, 1,21, 0, 1,30.00,40.00,WinterDesignDay
8,-24.2
10,32932135.530640086
511,348070525.8650856
2,1, 1,21, 0, 1,40.00,50.00,WinterDesignDay
8,-24.2
10,32932135.530639817
511,360331718.7759134
2,1, 1,21, 0, 1,50.00,60.00,WinterDesignDay
8,-24.2
10,32932135.43008507
511,357011756.492413
2,1, 1,21, 0, 1, 0.00,60.00,WinterDesignDay
745,18.06610715998267
785,18.00003155075782
825,18.000091501398935
865,18.00005628565017
905,18.000034079620897
945,18.000019440540254
985,18.00005499139698
1025,18.00001655407493
1065,18.000033645101028
1105,18.000051307134617
2,1, 1,21, 0, 2, 0.00,10.00,WinterDesignDay
8,-24.2
10,32932135.430084867
511,353439258.26354709
2,1, 1,21, 0, 2,10.00,20.00,WinterDesignDay
8,-24.2
10,32932135.329530237
511,354506861.41887846
2,1, 1,21, 0, 2,20.00,30.00,WinterDesignDay
8,-24.2
10,32932135.329530088
511,356181257.3708483
2,1, 1,21, 0, 2,30.00,40.00,WinterDesignDay
8,-24.2
10,32932134.726203577
511,368672253.7415726
2,1, 1,21, 0, 2,40.00,50.00,WinterDesignDay
8,-24.2
10,32932134.726203577
511,365170292.3999758
2,1, 1,21, 0, 2,50.00,60.00,WinterDesignDay
8,-24.2
10,32932134.726203577
511,360541114.69947698
2,1, 1,21, 0, 2, 0.00,60.00,WinterDesignDay
745,17.99992840368397
785,18.00002787670172
825,18.000073367876877
865,18.000047246120667
905,18.000029990215645
945,18.00001724876397
985,18.000043917200359
1025,18.000014925716678
1065,18.000028250086037
1105,18.00003596716388
2,1, 1,21, 0, 3, 0.00,10.00,WinterDesignDay
8,-24.2
10,32932134.726203577
511,361963830.5835291
2,1, 1,21, 0, 3,10.00,20.00,WinterDesignDay
8,-24.2
10,32932134.726203577
511,363366860.6504086
2,1, 1,21, 0, 3,20.00,30.00,WinterDesignDay
8,-24.2
10,32932134.726203577
511,375569186.76059678
2,1, 1,21, 0, 3,30.00,40.00,WinterDesignDay
8,-24.2
10,32932134.726203577
511,372333729.46494927
2,1, 1,21, 0, 3,40.00,50.00,WinterDesignDay
8,-24.2
10,32932134.726203577
511,367419334.4526359
2,1, 1,21, 0, 3,50.00,60.00,WinterDesignDay
8,-24.2
10,32932134.726203577
511,368730533.2503805
2,1, 1,21, 0, 3, 0.00,60.00,WinterDesignDay
745,17.999934265456515
785,18.000023392082423
825,18.000057283762364
865,18.000037990571255
905,18.000025045530778
945,18.000015640169584
985,18.000036784745153
1025,18.00001372141039
1065,18.00002451088243
1105,18.000025864553174
2,1, 1,21, 0, 4, 0.00,10.00,WinterDesignDay
8,-24.2
10,32932134.726203577
511,370021931.9069497
2,1, 1,21, 0, 4,10.00,20.00,WinterDesignDay
8,-24.2
10,32932134.726203577
511,381979792.7274964
2,1, 1,21, 0, 4,20.00,30.00,WinterDesignDay
8,-24.2
10,32932134.726203577
511,378896901.978682
2,1, 1,21, 0, 4,30.00,40.00,WinterDesignDay
8,-24.2
10,32932134.726203577
511,373742297.3133929
2,1, 1,21, 0, 4,40.00,50.00,WinterDesignDay
8,-24.2
10,32932134.726203577
511,374944422.4358716
2,1, 1,21, 0, 4,50.00,60.00,WinterDesignDay
8,-24.2
10,32932134.726203577
511,376127763.20964637
2,1, 1,21, 0, 4, 0.00,60.00,WinterDesignDay
745,17.999953208499809
785,18.000020381385423
825,18.000047860024627
865,18.000032102384606
905,18.000021647501379
945,18.00001447057458
985,18.000032248205654
1025,18.00001283650315
1065,18.000021950218899
1105,18.000022354566224
2,1, 1,21, 0, 5, 0.00,10.00,WinterDesignDay
8,-24.2
10,32932134.726203577
511,387881060.68229898
2,1, 1,21, 0, 5,10.00,20.00,WinterDesignDay
8,-24.2
10,32932134.726203577
511,384885238.99875119
2,1, 1,21, 0, 5,20.00,30.00,WinterDesignDay
8,-24.2
10,32932134.726203577
511,379530306.2549809
2,1, 1,21, 0, 5,30.00,40.00,WinterDesignDay
8,-24.2
10,32932134.726203577
511,380628607.8108833
2,1, 1,21, 0, 5,40.00,50.00,WinterDesignDay
8,-24.2
10,32932134.726203577
511,381709186.689674
2,1, 1,21, 0, 5,50.00,60.00,WinterDesignDay
8,-24.2