Program Version,EnergyPlus, Version 8.9.0-eba93e8e1b, YMD=2019.05.01 16:02
1,5,Environment Title[],Latitude[deg],Longitude[deg],Time Zone[],Elevation[m]
2,8,Day of Simulation[],Month[],Day of Month[],DST Indicator[1=yes 0=no],Hour[],StartMinute[],EndMinute[],DayType
3,5,Cumulative Day of Simulation[],Month[],Day of Month[],DST Indicator[1=yes 0=no],DayType  ! When Daily Report Variables Requested
4,2,Cumulative Days of Simulation[],Month[]  ! When Monthly Report Variables Requested
5,1,Cumulative Days of Simulation[] ! When Run Period Report Variables Requested
6,1,Calendar Year of Simulation[] ! When Annual Report Variables Requested
7,9,Environment,Site Outdoor Air Drybulb Temperature [C] !Monthly [Value,Min,Day,Hour,Minute,Max,Day,Hour,Minute]
8,1,Environment,Site Outdoor Air Wetbulb Temperature [C] !TimeStep
1201,1,SP-STORY 1 EAST CORE SPACE SYS-3 FLR-1 SCH-A HPLCMT-CORE ZN,Zone Air Temperature [C] !Hourly
1202,7,SP-STORY 1 EAST CORE SPACE SYS-3 FLR-1 SCH-A HPLCMT-CORE ZN,Zone Air Relative Humidity [%] !Daily [Value,Min,Hour,Minute,Max,Hour,Minute]
1241,1,SP-STORY 1 EAST LEFT PERIMETER SPACE SYS-3 FLR-1 SCH-A HPLCMT-EAST ZN,Zone Air Temperature [C] !Hourly
1242,7,SP-STORY 1 EAST LEFT PERIMETER SPACE SYS-3 FLR-1 SCH-A HPLCMT-EAST ZN,Zone Air Relative Humidity [%] !Daily [Value,Min,Hour,Minute,Max,Hour,Minute]
1281,1,SP-STORY 1 EAST RIGHT PERIMETER SPACE SYS-3 FLR-1 SCH-A HPLCMT-EAST ZN,Zone Air Temperature [C] !Hourly
1282,7,SP-STORY 1 EAST RIGHT PERIMETER SPACE SYS-3 FLR-1 SCH-A HPLCMT-EAST ZN,Zone Air Relative Humidity [%] !Daily [Value,Min,Hour,Minute,Max,Hour,Minute]
1321,1,SP-STORY 1 NORTH LEFT PERIMETER SPACE SYS-3 FLR-1 SCH-A HPLCMT-NORTH ZN,Zone Air Temperature [C] !Hourly
1322,7,SP-STORY 1 NORTH LEFT PERIMETER SPACE SYS-3 FLR-1 SCH-A HPLCMT-NORTH ZN,Zone Air Relative Humidity [%] !Daily [Value,Min,Hour,Minute,Max,Hour,Minute]
1361,1,SP-STORY 1 NORTH LOWER PERIMETER SPACE SYS-3 FLR-1 SCH-A HPLCMT-NORTH ZN,Zone Air Temperature [C] !Hourly
1362,7,SP-STORY 1 NORTH LOWER PERIMETER SPACE SYS-3 FLR-1 SCH-A HPLCMT-NORTH ZN,Zone Air Relative Humidity [%] !Daily [Value,Min,Hour,Minute,Max,Hour,Minute]
1401,1,SP-STORY 1 NORTH RIGHT PERIMETER SPACE SYS-3 FLR-1 SCH-A HPLCMT-NORTH ZN,Zone Air Temperature [C] !Hourly
1402,7,SP-STORY 1 NORTH RIGHT PERIMETER SPACE SYS-3 FLR-1 SCH-A HPLCMT-NORTH ZN,Zone Air Relative Humidity [%] !Daily [Value,Min,Hour,Minute,Max,Hour,Minute]
1441,1,SP-STORY 1 SOUTH CORE SPACE SYS-3 FLR-1 SCH-A HPLCMT-CORE ZN,Zone Air Temperature [C] !Hourly
1442,7,SP-STORY 1 SOUTH CORE SPACE SYS-3 FLR-1 SCH-A HPLCMT-CORE ZN,Zone Air Relative Humidity [%] !Daily [Value,Min,Hour,Minute,Max,Hour,Minute]
1481,1,SP-STORY 1 SOUTH LOWER PERIMETER SPACE SYS-3 FLR-1 SCH-A HPLCMT-SOUTH ZN,Zone Air Temperature [C] !Hourly
1482,7,SP-STORY 1 SOUTH LOWER PERIMETER SPACE SYS-3 FLR-1 SCH-A HPLCMT-SOUTH ZN,Zone Air Relative Humidity [%] !Daily [Value,Min,Hour,Minute,Max,Hour,Minute]
1521,1,SP-STORY 1 WEST CORE SPACE SYS-3 FLR-1 SCH-A HPLCMT-CORE ZN,Zone Air Temperature [C] !Hourly
1522,7,SP-STORY 1 WEST CORE SPACE SYS-3 FLR-1 SCH-A HPLCMT-CORE ZN,Zone Air Relative Humidity [%] !Daily [Value,Min,Hour,Minute,Max,Hour,Minute]
1561,1,SP-STORY 1 WEST LEFT PERIMETER SPACE SYS-3 FLR-1 SCH-A HPLCMT-WEST ZN,Zone Air Temperature [C] !Hourly
1562,7,SP-STORY 1 WEST LEFT PERIMETER SPACE SYS-3 FLR-1 SCH-A HPLCMT-WEST ZN,Zone Air Relative Humidity [%] !Daily [Value,Min,Hour,Minute,Max,Hour,Minute]
1601,1,SP-STORY 1 WEST RIGHT PERIMETER SPACE SYS-3 FLR-1 SCH-A HPLCMT-WEST ZN,Zone Air Temperature [C] !Hourly
1602,7,SP-STORY 1 WEST RIGHT PERIMETER SPACE SYS-3 FLR-1 SCH-A HPLCMT-WEST ZN,Zone Air Relative Humidity [%] !Daily [Value,Min,Hour,Minute,Max,Hour,Minute]
1641,1,SP-STORY 2 EAST CORE SPACE SYS-3 FLR-2 SCH-A HPLCMT-CORE ZN,Zone Air Temperature [C] !Hourly
1642,7,SP-STORY 2 EAST CORE SPACE SYS-3 FLR-2 SCH-A HPLCMT-CORE ZN,Zone Air Relative Humidity [%] !Daily [Value,Min,Hour,Minute,Max,Hour,Minute]
1681,1,SP-STORY 2 EAST LEFT PERIMETER SPACE SYS-3 FLR-2 SCH-A HPLCMT-EAST ZN,Zone Air Temperature [C] !Hourly
1682,7,SP-STORY 2 EAST LEFT PERIMETER SPACE SYS-3 FLR-2 SCH-A HPLCMT-EAST ZN,Zone Air Relative Humidity [%] !Daily [Value,Min,Hour,Minute,Max,Hour,Minute]
1721,1,SP-STORY 2 EAST RIGHT PERIMETER SPACE SYS-3 FLR-2 SCH-A HPLCMT-EAST ZN,Zone Air Temperature [C] !Hourly
1722,7,SP-STORY 2 EAST RIGHT PERIMETER SPACE SYS-3 FLR-2 SCH-A HPLCMT-EAST ZN,Zone Air Relative Humidity [%] !Daily [Value,Min,Hour,Minute,Max,Hour,Minute]
1761,1,SP-STORY 2 NORTH LEFT PERIMETER SPACE SYS-3 FLR-2 SCH-A HPLCMT-NORTH ZN,Zone Air Temperature [C] !Hourly
1762,7,SP-STORY 2 NORTH LEFT PERIMETER SPACE SYS-3 FLR-2 SCH-A HPLCMT-NORTH ZN,Zone Air Relative Humidity [%] !Daily [Value,Min,Hour,Minute,Max,Hour,Minute]
1801,1,SP-STORY 2 NORTH LOWER PERIMETER SPACE SYS-3 FLR-2 SCH-A HPLCMT-NORTH ZN,Zone Air Temperature [C] !Hourly
1802,7,SP-STORY 2 NORTH LOWER PERIMETER SPACE SYS-3 FLR-2 SCH-A HPLCMT-NORTH ZN,Zone Air Relative Humidity [%] !Daily [Value,Min,Hour,Minute,Max,Hour,Minute]
1841,1,SP-STORY 2 NORTH RIGHT PERIMETER SPACE SYS-3 FLR-2 SCH-A HPLCMT-NORTH ZN,Zone Air Temperature [C] !Hourly
1842,7,SP-STORY 2 NORTH RIGHT PERIMETER SPACE SYS-3 FLR-2 SCH-A HPLCMT-NORTH ZN,Zone Air Relative Humidity [%] !Daily [Value,Min,Hour,Minute,Max,Hour,Minute]
1881,1,SP-STORY 2 SOUTH CORE SPACE SYS-3 FLR-2 SCH-A HPLCMT-CORE ZN,Zone Air Temperature [C] !Hourly
1882,7,SP-STORY 2 SOUTH CORE SPACE SYS-3 FLR-2 SCH-A HPLCMT-CORE ZN,Zone Air Relative Humidity [%] !Daily [Value,Min,Hour,Minute,Max,Hour,Minute]
1921,1,SP-STORY 2 SOUTH LOWER PERIMETER SPACE SYS-3 FLR-2 SCH-A HPLCMT-SOUTH ZN,Zone Air Temperature [C] !Hourly
1922,7,SP-STORY 2 SOUTH LOWER PERIMETER SPACE SYS-3 FLR-2 SCH-A HPLCMT-SOUTH ZN,Zone Air Relative Humidity [%] !Daily [Value,Min,Hour,Minute,Max,Hour,Minute]
1961,1,SP-STORY 2 WEST CORE SPACE SYS-3 FLR-2 SCH-A HPLCMT-CORE ZN,Zone Air Temperature [C] !Hourly
1962,7,SP-STORY 2 WEST CORE SPACE SYS-3 FLR-2 SCH-A HPLCMT-CORE ZN,Zone Air Relative Humidity [%] !Daily [Value,Min,Hour,Minute,Max,Hour,Minute]
2001,1,SP-STORY 2 WEST LEFT PERIMETER SPACE SYS-3 FLR-2 SCH-A HPLCMT-WEST ZN,Zone Air Temperature [C] !Hourly
2002,7,SP-STORY 2 WEST LEFT PERIMETER SPACE SYS-3 FLR-2 SCH-A HPLCMT-WEST ZN,Zone Air Relative Humidity [%] !Daily [Value,Min,Hour,Minute,Max,Hour,Minute]
2041,1,SP-STORY 2 WEST RIGHT PERIMETER SPACE SYS-3 FLR-2 SCH-A HPLCMT-WEST ZN,Zone Air Temperature [C] !Hourly
2042,7,SP-STORY 2 WEST RIGHT PERIMETER SPACE SYS-3 FLR-2 SCH-A HPLCMT-WEST ZN,Zone Air Relative Humidity [%] !Daily [Value,Min,Hour,Minute,Max,Hour,Minute]
10,1,Electricity:Facility [J] !TimeStep
967,1,Gas:Facility [J] !TimeStep
End of Data Dictionary
1,OTTAWA=MACDONALD-CARTIER INTL ANN CLG .4% CONDNS DB=>MWB,  45.32, -75.67,  -5.00, 114.90
2,1, 7,21, 0, 1, 0.00,10.00,SummerDesignDay
8,19.2840458690032
10,35526098.56817732
967,12000.0
2,1, 7,21, 0, 1,10.00,20.00,SummerDesignDay
8,19.25220058801155
10,35526098.56817732
967,12000.0
2,1, 7,21, 0, 1,20.00,30.00,SummerDesignDay
8,19.2203165671003
10,35526098.56817732
967,12000.0
2,1, 7,21, 0, 1,30.00,40.00,SummerDesignDay
8,19.188388626363016
10,35526098.56817732
967,12000.0
2,1, 7,21, 0, 1,40.00,50.00,SummerDesignDay
8,19.15642770709394
10,35526098.56817732
967,12000.0
2,1, 7,21, 0, 1,50.00,60.00,SummerDesignDay
8,19.124427397166604
10,35526098.56817732
967,8553956.893940939
2,1, 7,21, 0, 1, 0.00,60.00,SummerDesignDay
1201,25.332475913250425
1241,26.472203325163894
1281,26.514567169864479
1321,25.26110715535641
1361,25.122033661006243
1401,25.246529706527967
1441,25.158407297858444
1481,25.80718171021908
1521,25.374349011363735
1561,27.84195215031477
1601,27.706401179001845
1641,25.368414645231707
1681,26.28013543495223
1721,26.30427364172131
1761,25.19916661178948
1801,25.116813896833553
1841,25.185183064458888
1881,25.23432597426918
1921,25.71430376286509
1961,25.399308061508067
2001,27.170262329963476
2041,27.080010043967794
2,1, 7,21, 0, 2, 0.00,10.00,SummerDesignDay
8,19.103070457286994
10,35526098.56817732
967,7851945.923601063
2,1, 7,21, 0, 2,10.00,20.00,SummerDesignDay
8,19.08170119193842
10,35526098.56817732
967,12000.0
2,1, 7,21, 0, 2,20.00,30.00,SummerDesignDay
8,19.06030939273045
10,35526098.56817732
967,12000.0
2,1, 7,21, 0, 2,30.00,40.00,SummerDesignDay
8,19.03890076386851
10,35526098.56817732
967,12000.0
2,1, 7,21, 0, 2,40.00,50.00,SummerDesignDay
8,19.01747444558601
10,35526098.56817732
967,12000.0
2,1, 7,21, 0, 2,50.00,60.00,SummerDesignDay
8,18.996036037989819
10,35526098.56817732
967,3864211.336716391
2,1, 7,21, 0, 2, 0.00,60.00,SummerDesignDay
1201,25.139706524025955
1241,26.292279271256765
1281,26.3305460632594
1321,25.042046318485914
1361,24.919304317703195
1401,25.026009387268688
1441,24.96257960306473
1481,25.573011274146848
1521,25.18240662279952
1561,27.58367933884213
1601,27.455033487502687
1641,25.125455805870279
1681,26.109628700578324
1721,26.130879188001147
1761,24.97148365972679
1801,24.897062321553454
1841,24.955571476477414
1881,24.9842514462047
1921,25.47780046018109
1961,25.158387574369674
2001,26.973707631195368
2041,26.88432822705327
2,1, 7,21, 0, 3, 0.00,10.00,SummerDesignDay
8,18.97994058577143
10,35526098.56817732
967,12445010.038414065
2,1, 7,21, 0, 3,10.00,20.00,SummerDesignDay
8,18.96383509390068
10,35526098.56817732
967,12000.0
2,1, 7,21, 0, 3,20.00,30.00,SummerDesignDay
8,18.947724870466826
10,35526098.56817732
967,12000.0
2,1, 7,21, 0, 3,30.00,40.00,SummerDesignDay
8,18.931599991201066
10,35526098.56817732
967,12000.0
2,1, 7,21, 0, 3,40.00,50.00,SummerDesignDay
8,18.915470425479847
10,35526098.56817732
967,12000.0
2,1, 7,21, 0, 3,50.00,60.00,SummerDesignDay
8,18.8993255989201
10,35526098.56817732
967,547066.2966091479
2,1, 7,21, 0, 3, 0.00,60.00,SummerDesignDay
1201,24.976978706254156
1241,26.099685137680085
1281,26.13248595954695
1321,24.839890174318346
1361,24.734652980265897
1401,24.822769175027064
1441,24.800508812065237
1481,25.349963838461905
1521,25.01968567230841
1561,27.299155186122009
1601,27.17944833137365
1641,24.920002157247539
1681,25.90612614611024
1721,25.923689018220107
1761,24.747320801492987
1801,24.681564436377035
1841,24.729994548870555
1881,24.77356360768242
1921,25.234044898517696
1961,24.953950983323364
2001,26.72699714019919
2041,26.64095270072291
2,1, 7,21, 0, 4, 0.00,10.00,SummerDesignDay
8,18.883176400800605
10,35526098.56817732
967,15706432.677450952
2,1, 7,21, 0, 4,10.00,20.00,SummerDesignDay
8,18.867011710849643
10,35526098.56817732
967,12000.0
2,1, 7,21, 0, 4,20.00,30.00,SummerDesignDay
8,18.850837592647797
10,35526098.56817732
967,12000.0
2,1, 7,21, 0, 4,30.00,40.00,SummerDesignDay
8,18.834658360362007
10,35526098.56817732
967,12000.0
2,1, 7,21, 0, 4,40.00,50.00,SummerDesignDay
8,18.8184648850153
10,35526098.56817732
967,12000.0
2,1, 7,21, 0, 4,50.00,60.00,SummerDesignDay
8,18.8022655410338
10,35526098.56817732
967,12000.0
2,1, 7,21, 0, 4, 0.00,60.00,SummerDesignDay
1201,24.829332279202807
1241,25.909235830191127
1281,25.936394596247057
1321,24.647973752541409
1361,24.560012829040919
1401,24.63002484786155
1441,24.654811820451415
1481,25.13783292604182
1521,24.871754801827668
1561,27.016901629148266
1601,26.90652068848415
1641,24.73804144247882
1681,25.694247857841174
1721,25.708088025448537
1761,24.529538825732133
1801,24.473082028119099
1841,24.511221413464658
1881,24.589636412722077
1921,24.996064723809643
1961,24.77232909904929
2001,26.466032643724476
2041,26.38441758320253
2,1, 7,21, 0, 5, 0.00,10.00,SummerDesignDay
8,18.79145567867417
10,35526098.56817732
967,16260619.952311136
2,1, 7,21, 0, 5,10.00,20.00,SummerDesignDay
8,18.780646332866213
10,35526098.56817732
967,12000.0
2,1, 7,21, 0, 5,20.00,30.00,SummerDesignDay
8,18.76983296444122
10,35526098.56817732
967,12000.0
2,1, 7,21, 0, 5,30.00,40.00,SummerDesignDay
8,18.75901007085189
10,35526098.56817732
967,12000.0
2,1, 7,21, 0, 5,40.00,50.00,SummerDesignDay
8,18.7481869937485
10,35526098.56817732
967,12000.0
2,1, 7,21, 0, 5,50.00,60.00,SummerDesignDay
8,18.737365749092537
10,35803088.71287464
967,12000.0
2,1, 7,21, 0, 5, 0.00,60.00,SummerDesignDay
1201,24.69124293944297
1241,25.759850576949636
1281,25.862238605553676
1321,24.537224665187308
1361,24.40541970769375
1401,24.518777048395376
1441,24.518649449679346
1481,24.945894119503309
1521,24.732919745881337
1561,26.754824258955144
1601,26.652614191597697
1641,24.57730958484324
1681,25.55640887308461
1721,25.623673074597453
1761,24.409627026721855
1801,24.29699966508612
1841,24.390811476336677
1881,24.42798940416392
1921,24.788504211843347
1961,24.611087387842088
2001,26.221248503977795
2041,26.144110338294444
2,1, 7,21, 0, 6, 0.00,10.00,SummerDesignDay
8,18.7481869937485
10,36192663.70511104
967,16446116.470655512
2,1, 7,21, 0, 6,10.00,20.00,SummerDesignDay
8,18.75901007085189
10,36334630.60704927
967,302060.3876967522
2,1, 7,21, 0, 6,20.00,30.00,SummerDesignDay
8,18.76983296444122
10,36504691.25616404
967,660724.3326201052
2,1, 7,21, 0, 6,30.00,40.00,SummerDesignDay
8,18.780646332866213
10,36494873.04538471
967,943164.5766168318
2,1, 7,21, 0, 6,40.00,50.00,SummerDesignDay
8,18.79145567867417
10,36563739.14361839
967,1203106.4506706349
2,1, 7,21, 0, 6,50.00,60.00,SummerDesignDay
8,18.8022655410338
10,36389664.82442481
967,969991.0678795634
2,1, 7,21, 0, 6, 0.00,60.00,SummerDesignDay
1201,24.649044452228329
1241,28.369629783188726
1281,29.562424410704609
1321,25.44323478654795
1361,24.500354437677414
1401,25.43777261544569
1441,24.43503848376437
1481,24.976104830535875
1521,24.663318590461
1561,26.67813262144003
1601,26.566021481013498
1641,24.653195195467235
1681,29.10538131655889
1721,29.32133786612201
1761,25.41754516434438
1801,24.842853715883114
1841,25.403210183721229
1881,24.43387201793414
1921,24.920090172951558
1961,24.66193822527389
2001,26.268077794187169
2041,26.19095754411519
2,1, 7,21, 0, 7, 0.00,10.00,SummerDesignDay
8,18.840052605786814
10,104104176.76755724
967,18673725.72537647
2,1, 7,21, 0, 7,10.00,20.00,SummerDesignDay
8,18.87778619489805
10,89700836.3339561
967,12000.0
2,1, 7,21, 0, 7,20.00,30.00,SummerDesignDay
8,18.915470425479847
10,86365796.5630995
967,12000.0
2,1, 7,21, 0, 7,30.00,40.00,SummerDesignDay
8,18.953096118062495
10,83401462.71182822
967,12000.0
2,1, 7,21, 0, 7,40.00,50.00,SummerDesignDay
8,18.99066883495391
10,82492080.20936838
967,12000.0
2,1, 7,21, 0, 7,50.00,60.00,SummerDesignDay
8,19.02819215483863
10,83741820.62228844
967,12000.0
2,1, 7,21, 0, 7, 0.00,60.00,SummerDesignDay
1201,24.013733791728574
1241,24.23011398989613
1281,24.26883873882056
1321,24.032904111822906
1361,24.004817391817327
1401,24.03305702065443
1441,24.004252599427926
1481,24.004913485856908
1521,24.01234145917969
1561,24.019016130143528
1601,24.017438872469
1641,24.012440748287067
1681,24.241507154131
1721,24.248906957589836
1761,24.032562243257116
1801,24.01087395925237
1841,24.032249211878438
1881,23.99971471650487
1921,24.00084520575218
1961,24.011961438343297
2001,24.013163478064514
2041,24.011674799547348
2,1, 7,21, 0, 8, 0.00,10.00,SummerDesignDay
8,19.119090922986229
10,129730146.02013773
967,17045356.760458117
2,1, 7,21, 0, 8,10.00,20.00,SummerDesignDay
8,19.209676482065853
10,132824413.28890884
967,12000.0
2,1, 7,21, 0, 8,20.00,30.00,SummerDesignDay
8,19.299951906634847
10,135025338.80635844
967,12000.0
2,1, 7,21, 0, 8,30.00,40.00,SummerDesignDay
8,19.389928824990219
10,137214399.67978279
967,17213348.40698616
2,1, 7,21, 0, 8,40.00,50.00,SummerDesignDay
8,19.4795823892733
10,139373691.852549
967,12000.0
2,1, 7,21, 0, 8,50.00,60.00,SummerDesignDay
8,19.568935475929295
10,141494695.21971903
967,12000.0
2,1, 7,21, 0, 8, 0.00,60.00,SummerDesignDay
1201,23.999685430009703
1241,23.99844723906568
1281,23.998459329355268
1321,23.999583921469328
1361,23.999716423086509
1401,23.999581388349559
1441,23.999812470884707
1481,23.99986909366731
1521,23.99972581777401
1561,23.999943437311346
1601,23.999949077270199
1641,23.999454640870878
1681,23.997757332543857
1721,23.997745779305263
1761,23.999295886058716
1801,23.999416840776619
1841,23.999289711100116
1881,23.999621508468427
1921,23.999759078432434
1961,23.999500562820527
2001,23.99988573057769
2041,23.999886622062534
2,1, 7,21, 0, 9, 0.00,10.00,SummerDesignDay
8,19.66844507688812
10,268071345.13585139
967,26235352.396274285
2,1, 7,21, 0, 9,10.00,20.00,SummerDesignDay
8,19.767573179707669
10,273196059.78094258
967,27861304.511614164
2,1, 7,21, 0, 9,20.00,30.00,SummerDesignDay
8,19.866330746445795
10,275189256.44613787
967,27866198.23498712
2,1, 7,21, 0, 9,30.00,40.00,SummerDesignDay
8,19.964711871061558
10,277255481.4274664
967,27871628.736689304
2,1, 7,21, 0, 9,40.00,50.00,SummerDesignDay
8,20.062727728864816
10,279146002.61841729
967,27877016.845681725
2,1, 7,21, 0, 9,50.00,60.00,SummerDesignDay
8,20.160375627757714
10,280899497.2344574
967,27882409.547238009
2,1, 7,21, 0, 9, 0.00,60.00,SummerDesignDay
1201,23.998527739102867
1241,23.998415154531558
1281,23.998404260318975
1321,23.99912183111891
1361,23.999198159292435
1401,23.999118514092875
1441,23.99861113472035
1481,23.99948636749161
1521,23.998615658217266
1561,23.999823538873046
1601,23.999832183299664
1641,23.99814797428341
1681,23.99756439269859
1721,23.997545133385797
1761,23.99853498163195
1801,23.99861934040921
1841,23.998526466044777
1881,23.998304197588749
1921,23.99919487881874
1961,23.998204721424825
2001,23.999665076337125
2041,23.999664189784015
2,1, 7,21, 0,10, 0.00,10.00,SummerDesignDay
8,20.247432286023
10,307467891.0772147
967,26609970.281318208
2,1, 7,21, 0,10,10.00,20.00,SummerDesignDay
8,20.334198251055687
10,309208674.71819546
967,23979558.944021498
2,1, 7,21, 0,10,20.00,30.00,SummerDesignDay
8,20.420674889330156
10,310449150.3020997
967,23961452.137361643
2,1, 7,21, 0,10,30.00,40.00,SummerDesignDay
8,20.50686410461129
10,311558886.29170146
967,23941728.01837575
2,1, 7,21, 0,10,40.00,50.00,SummerDesignDay
8,20.59277197915242
10,312497408.41142776
967,23921551.92742885
2,1, 7,21, 0,10,50.00,60.00,SummerDesignDay
8,20.67839100058158
10,313238760.8223497
967,23900969.296394908
2,1, 7,21, 0,10, 0.00,60.00,SummerDesignDay
1201,23.998225622834086
1241,23.99842658524879
1281,23.99840205229404
1321,23.998731767306216
1361,23.998815114039929
1401,23.998727127750887
1441,23.99820567148282
1481,23.99891968859578
1521,23.998303543772598
1561,23.9996982935089
1601,23.999708760234005
1641,23.99772222130231
1681,23.99762005416692
1721,23.99759713073955
1761,23.99788741845012
1801,23.99797203107744
1841,23.997879350392524
1881,23.997805018787685
1921,23.998514335288136
1961,23.997765474524529
2001,23.99942842810538
2041,23.9994267561992
2,1, 7,21, 0,11, 0.00,10.00,SummerDesignDay
8,20.75370382828009
10,313780313.6214082
967,48568672.75966148
2,1, 7,21, 0,11,10.00,20.00,SummerDesignDay
8,20.82879725584293
10,315250211.95519396
967,49940077.342245187
2,1, 7,21, 0,11,20.00,30.00,SummerDesignDay
8,20.90366855164364
10,315867938.7118727
967,39645320.75422049
2,1, 7,21, 0,11,30.00,40.00,SummerDesignDay
8,20.978327197140595
10,316632416.0653542
967,59343138.15912105
2,1, 7,21, 0,11,40.00,50.00,SummerDesignDay
8,21.052770435649987
10,317452826.43347397
967,39661830.822229478
2,1, 7,21, 0,11,50.00,60.00,SummerDesignDay
8,21.126998315025806
10,318310882.6568345
967,39634659.12957707
2,1, 7,21, 0,11, 0.00,60.00,SummerDesignDay
1201,23.998306460801673
1241,23.998848798887264
1281,23.998826018786958
1321,23.998512646437545
1361,23.99860345137532
1401,23.998508166922137
1441,23.998206448309749
1481,23.99831628112778
1521,23.998356133723644
1561,23.999618076276165
1601,23.999627701986645
1641,23.99766045892004
1681,23.998247756445325
1721,23.99823082205825
1761,23.99751627732348
1801,23.99760235252229
1841,23.997510124396468
1881,23.99767463979296
1921,23.997808195307419
1961,23.997686005075196
2001,23.999273510261888
2041,23.999272003427948
2,1, 7,21, 0,12, 0.00,10.00,SummerDesignDay
8,21.176364764512436
10,319011204.56886306
967,59343138.15912105
2,1, 7,21, 0,12,10.00,20.00,SummerDesignDay
8,21.225636252128049
10,319767434.2627029
967,39654685.000423807
2,1, 7,21, 0,12,20.00,30.00,SummerDesignDay
8,21.27481408813442
10,320618758.9056814
967,47152182.79340091
2,1, 7,21, 0,12,30.00,40.00,SummerDesignDay
8,21.32389714161367
10,321545483.7022471
967,51825580.21459914
2,1, 7,21, 0,12,40.00,50.00,SummerDesignDay
8,21.372882039030619
10,322402284.3587526
967,39646837.820053908
2,1, 7,21, 0,12,50.00,60.00,SummerDesignDay
8,21.421778222706306
10,323274545.0965343
967,58283719.730775538
2,1, 7,21, 0,12, 0.00,60.00,SummerDesignDay
1201,23.998235277628436
1241,23.999174257125025
1281,23.999159102269375
1321,23.99835895368894
1361,23.99845110009551
1401,23.998355624582407
1441,23.99807200332396
1481,23.997839041281343
1521,23.998269680399557
1561,23.999564083955776
1601,23.99957299999446
1641,23.997500809998415
1681,23.998719876756227
1721,23.998711654677199
1761,23.99728649073808
1801,23.997363886553264
1841,23.997283082382116
1881,23.997455209847087
1921,23.997228543210729
1961,23.997514063228249
2001,23.99917816929587
2041,23.99917780827302
2,1, 7,21, 0,13, 0.00,10.00,SummerDesignDay
8,21.460829759656176
10,320298324.12428036
967,40719161.29287457
2,1, 7,21, 0,13,10.00,20.00,SummerDesignDay
8,21.499817003159384
10,320808706.018721
967,39636652.01219941
2,1, 7,21, 0,13,20.00,30.00,SummerDesignDay
8,21.53875017563149
10,321448689.425845
967,59343138.15912105
2,1, 7,21, 0,13,30.00,40.00,SummerDesignDay
8,21.57761871831439
10,322038326.2235664
967,39655919.640920598
2,1, 7,21, 0,13,40.00,50.00,SummerDesignDay
8,21.616433450967234
10,322676836.5008335
967,45257721.4559829
2,1, 7,21, 0,13,50.00,60.00,SummerDesignDay
8,21.655184624488759
10,323438166.22618398
967,53717547.577553439
2,1, 7,21, 0,13, 0.00,60.00,SummerDesignDay
1201,23.99846637235432
1241,23.999350564175175
1281,23.99934009454626
1321,23.998449753743996
1361,23.99853798764894
1401,23.99844757302168
1441,23.998311962020428
1481,23.99794915958218
1521,23.998494169150776
1561,23.999576544111578
1601,23.99958550823784
1641,23.997759106069386
1681,23.99894732291463
1721,23.998943234016619
1761,23.99739706013494
1801,23.99746875200974
1841,23.997395772432467
1881,23.997702298367558
1921,23.997266544245546
1961,23.997768778088273
2001,23.99918699848567
2041,23.99918844125557
2,1, 7,21, 0,14, 0.00,10.00,SummerDesignDay
8,21.67937576104208
10,324073193.32670947
967,39648328.350253339
2,1, 7,21, 0,14,10.00,20.00,SummerDesignDay
8,21.703544513972305
10,324913350.1394164
967,56380203.61316974
2,1, 7,21, 0,14,20.00,30.00,SummerDesignDay
8,21.727690125397957
10,325928518.90010049
967,42617868.31914096
2,1, 7,21, 0,14,30.00,40.00,SummerDesignDay
8,21.751812391480358
10,327067120.0419096
967,39638569.45651685
2,1, 7,21, 0,14,40.00,50.00,SummerDesignDay
8,21.7759121945202
10,328417152.31225118
967,59343138.15912105
2,1, 7,21, 0,14,50.00,60.00,SummerDesignDay
8,21.799989308895414
10,329849071.4117636
967,39657144.97081919
2,1, 7,21, 0,14, 0.00,60.00,SummerDesignDay
1201,23.99853395886215
1241,23.99940667166986
1281,23.99939787265512
1321,23.99848385084748
1361,23.998575552761556
1401,23.99848238596853
1441,23.99841115648178
1481,23.99826040421301
1521,23.998558176767007
1561,23.999406269943063
1601,23.99942045378346
1641,23.99792993910647
1681,23.999017107716325
1721,23.999014754606816
1761,23.997720035845075
1801,23.99777735861539
1841,23.997719277436237
1881,23.997898934981007
1921,23.99758169595756
1961,23.997935751640389
2001,23.99899762261754
2041,23.99900255221606
2,1, 7,21, 0,15, 0.00,10.00,SummerDesignDay
8,21.799989308895414
10,334675987.4375567
967,43371484.583241049
2,1, 7,21, 0,15,10.00,20.00,SummerDesignDay
8,21.799989308895414
10,336213969.9214572
967,55602231.028967078
2,1, 7,21, 0,15,20.00,30.00,SummerDesignDay
8,21.799989308895414
10,337545923.9747294
967,39649743.53239699
2,1, 7,21, 0,15,30.00,40.00,SummerDesignDay
8,21.799989308895414
10,338764392.4671479
967,54484725.345638249
2,1, 7,21, 0,15,40.00,50.00,SummerDesignDay
8,21.799989308895414
10,339785353.28704008
967,44508566.747587237
2,1, 7,21, 0,15,50.00,60.00,SummerDesignDay
8,21.799989308895414
10,340548039.0589592
967,39640406.025262679
2,1, 7,21, 0,15, 0.00,60.00,SummerDesignDay
1201,23.99818223331688
1241,23.99937155510958
1281,23.999362525048768
1321,23.998318810541674
1361,23.998426226678644
1401,23.998318631498248
1441,23.998107208235966
1481,23.998467285901204
1521,23.9981961782761
1561,23.99866623981671
1601,23.998694520093215
1641,23.99770606997622
1681,23.99898725856394
1721,23.998986517504819
1761,23.99755346162641
1801,23.997624490054567
1841,23.997556397702636
1881,23.997732635456037
1921,23.99786026911461
1961,23.99769538320736
2001,23.998142126450774
2041,23.998157349407238
2,1, 7,21, 0,16, 0.00,10.00,SummerDesignDay
8,21.771094855856704
10,340766720.6191047
967,59343138.15912105
2,1, 7,21, 0,16,10.00,20.00,SummerDesignDay
8,21.742168014681356
10,340759563.60723349
967,39658361.2401238
2,1, 7,21, 0,16,20.00,30.00,SummerDesignDay
8,21.71320780280698
10,340551945.40519836
967,41492824.32527974
2,1, 7,21, 0,16,30.00,40.00,SummerDesignDay
8,21.68421463192507
10,340217940.37999847
967,57480424.6409301
2,1, 7,21, 0,16,40.00,50.00,SummerDesignDay
8,21.655184624488759
10,339669097.98780396
967,39651085.15944148
2,1, 7,21, 0,16,50.00,60.00,SummerDesignDay
8,21.6261256071541
10,339007646.87976667
967,52595871.9869104
2,1, 7,21, 0,16, 0.00,60.00,SummerDesignDay
1201,23.997909541473829
1241,23.999375815688706
1281,23.999366340124344
1321,23.998256917530303
1361,23.998373863043559
1401,23.998258942343797
1441,23.997902604068839
1481,23.99870262658243
1521,23.99790369907456
1561,23.998048343993579
1601,23.998077679846224
1641,23.99763399841807
1681,23.99901890505411
1721,23.999019371361454
1761,23.99738288517476
1801,23.997473679609528
1841,23.99738789106892
1881,23.997725099389418
1921,23.998193284962914
1961,23.997600000435346
2001,23.997378559846088
2041,23.997401702362415
2,1, 7,21, 0,17, 0.00,10.00,SummerDesignDay
8,21.587330220761357
10,338088967.0188763
967,42557660.9284475
2,1, 7,21, 0,17,10.00,20.00,SummerDesignDay
8,21.548471336507889
10,336495741.1949222
967,34632497.302319798
2,1, 7,21, 0,17,20.00,30.00,SummerDesignDay
8,21.509558190151649
10,335179067.8475108
967,34048103.38129976
2,1, 7,21, 0,17,30.00,40.00,SummerDesignDay
8,21.470581299934044
10,333734110.4936439
967,34035427.153827298
2,1, 7,21, 0,17,40.00,50.00,SummerDesignDay
8,21.431549204917386
10,332217390.01016238
967,34022402.608859319
2,1, 7,21, 0,17,50.00,60.00,SummerDesignDay
8,21.392452600030727
10,330639712.0059216
967,34009167.13898907
2,1, 7,21, 0,17, 0.00,60.00,SummerDesignDay
1201,23.997847012368113
1241,23.999435983121967
1281,23.99942790512264
1321,23.998384750304113
1361,23.998492536925526
1401,23.99838824420543
1441,23.997875254882659
1481,23.99892399892157
1521,23.997831175644497
1561,23.99793143989531
1601,23.99794481076024
1641,23.997860168352699
1681,23.999133532600469
1721,23.999134936354449
1761,23.997680703314236
1801,23.99777206973489
1841,23.997688194386215
1881,23.997981357871024
1921,23.99853432278805
1961,23.99781567841491
2001,23.997197373293266
2041,23.997217153650014
2,1, 7,21, 0,18, 0.00,10.00,SummerDesignDay
8,21.343500800253975
10,315060293.4153328
967,25237696.89258835
2,1, 7,21, 0,18,10.00,20.00,SummerDesignDay
8,21.29445517999728
10,312379318.43181797
967,25498282.334123266
2,1, 7,21, 0,18,20.00,30.00,SummerDesignDay
8,21.24531961332415
10,310205076.3398501
967,27846152.89882914
2,1, 7,21, 0,18,30.00,40.00,SummerDesignDay
8,21.196085706061159
10,307919684.9085524
967,27850776.442992804
2,1, 7,21, 0,18,40.00,50.00,SummerDesignDay
8,21.146756926413827
10,305592354.0836137
967,27856108.988309415
2,1, 7,21, 0,18,50.00,60.00,SummerDesignDay
8,21.097333755216899
10,303220203.24950358
967,27861480.15472949
2,1, 7,21, 0,18, 0.00,60.00,SummerDesignDay
1201,23.998236080234184
1241,23.999548955385838
1281,23.999542857815908
1321,23.99859035977825
1361,23.9987298734725
1401,23.998594342095374
1441,23.998273278166708
1481,23.999163846632759
1521,23.9982185230499
1561,23.998188697690073
1601,23.998197115499708
1641,23.99841764494789
1681,23.999318554774196
1721,23.99932000559205
1761,23.998086966582379
1801,23.998193630535199
1841,23.998095394736365
1881,23.998531470103346
1921,23.99889874787245
1961,23.998375573808848
2001,23.99749797227717
2041,23.99751567282262
2,1, 7,21, 0,19, 0.00,10.00,SummerDesignDay
8,21.023019732832933
10,216355278.04494713
967,21766497.87485778
2,1, 7,21, 0,19,10.00,20.00,SummerDesignDay
8,20.948490549703029
10,211644091.33848403
967,11625194.860369839
2,1, 7,21, 0,19,20.00,30.00,SummerDesignDay
8,20.873745184382885
10,208252826.5513035
967,9623653.924652029
2,1, 7,21, 0,19,30.00,40.00,SummerDesignDay
8,20.798782612519024
10,204606017.83725599
967,21169858.177996756
2,1, 7,21, 0,19,40.00,50.00,SummerDesignDay
8,20.723605634987398
10,200785255.2564011
967,21252071.007139855
2,1, 7,21, 0,19,50.00,60.00,SummerDesignDay
8,20.648205443782066
10,196393764.7346588
967,8596405.942080845
2,1, 7,21, 0,19, 0.00,60.00,SummerDesignDay
1201,23.999281834993015
1241,23.999709496131375
1281,23.99970474927365
1321,23.998862472378183
1361,23.999208913129548
1401,23.99886641800497
1441,23.999326620102165
1481,23.99948424040569
1521,23.999265313337565
1561,23.998811192999815
1601,23.998843573413127
1641,23.999324392918607
1681,23.99955854065192
1721,23.999558976974855
1761,23.998549560697314
1801,23.998743270197865
1841,23.99855744322909
1881,23.999394065186086
1921,23.99931991489873
1961,23.99929797578439
2001,23.99828856753852
2041,23.998305173820829
2,1, 7,21, 0,20, 0.00,10.00,SummerDesignDay
8,20.59277197915242
10,144055618.86643649
967,11353493.325189492
2,1, 7,21, 0,20,10.00,20.00,SummerDesignDay
8,20.537219972964399
10,138968516.61670927
967,19032507.736924769
2,1, 7,21, 0,20,20.00,30.00,SummerDesignDay
8,20.48154799091199
10,134824819.0507658
967,12000.0
2,1, 7,21, 0,20,30.00,40.00,SummerDesignDay
8,20.425752225515759
10,130843305.72610685
967,18984755.72124064
2,1, 7,21, 0,20,40.00,50.00,SummerDesignDay
8,20.369840248455387
10,128058242.4618767
967,12000.0