Program Version,EnergyPlus, Version 9.1.0-fafb9d5652, YMD=2019.10.28 16:19
1,5,Environment Title[],Latitude[deg],Longitude[deg],Time Zone[],Elevation[m]
2,8,Day of Simulation[],Month[],Day of Month[],DST Indicator[1=yes 0=no],Hour[],StartMinute[],EndMinute[],DayType
3,5,Cumulative Day of Simulation[],Month[],Day of Month[],DST Indicator[1=yes 0=no],DayType  ! When Daily Report Variables Requested
4,2,Cumulative Days of Simulation[],Month[]  ! When Monthly Report Variables Requested
5,1,Cumulative Days of Simulation[] ! When Run Period Report Variables Requested
6,1,Calendar Year of Simulation[] ! When Annual Report Variables Requested
7,9,Environment,Site Outdoor Air Drybulb Temperature [C] !Monthly [Value,Min,Day,Hour,Minute,Max,Day,Hour,Minute]
8,1,Environment,Site Outdoor Air Wetbulb Temperature [C] !TimeStep
1003,1,SP-STORY 1 EAST CORE SPACE SYS-3 FLR-1 SCH-A HPLCMT-CORE ZN,Zone Air Temperature [C] !Hourly
1004,7,SP-STORY 1 EAST CORE SPACE SYS-3 FLR-1 SCH-A HPLCMT-CORE ZN,Zone Air Relative Humidity [%] !Daily [Value,Min,Hour,Minute,Max,Hour,Minute]
1043,1,SP-STORY 1 EAST LEFT PERIMETER SPACE SYS-3 FLR-1 SCH-A HPLCMT-EAST ZN,Zone Air Temperature [C] !Hourly
1044,7,SP-STORY 1 EAST LEFT PERIMETER SPACE SYS-3 FLR-1 SCH-A HPLCMT-EAST ZN,Zone Air Relative Humidity [%] !Daily [Value,Min,Hour,Minute,Max,Hour,Minute]
1083,1,SP-STORY 1 EAST RIGHT PERIMETER SPACE SYS-3 FLR-1 SCH-A HPLCMT-EAST ZN,Zone Air Temperature [C] !Hourly
1084,7,SP-STORY 1 EAST RIGHT PERIMETER SPACE SYS-3 FLR-1 SCH-A HPLCMT-EAST ZN,Zone Air Relative Humidity [%] !Daily [Value,Min,Hour,Minute,Max,Hour,Minute]
1123,1,SP-STORY 1 NORTH LEFT PERIMETER SPACE SYS-3 FLR-1 SCH-A HPLCMT-NORTH ZN,Zone Air Temperature [C] !Hourly
1124,7,SP-STORY 1 NORTH LEFT PERIMETER SPACE SYS-3 FLR-1 SCH-A HPLCMT-NORTH ZN,Zone Air Relative Humidity [%] !Daily [Value,Min,Hour,Minute,Max,Hour,Minute]
1163,1,SP-STORY 1 NORTH LOWER PERIMETER SPACE SYS-3 FLR-1 SCH-A HPLCMT-NORTH ZN,Zone Air Temperature [C] !Hourly
1164,7,SP-STORY 1 NORTH LOWER PERIMETER SPACE SYS-3 FLR-1 SCH-A HPLCMT-NORTH ZN,Zone Air Relative Humidity [%] !Daily [Value,Min,Hour,Minute,Max,Hour,Minute]
1203,1,SP-STORY 1 NORTH RIGHT PERIMETER SPACE SYS-3 FLR-1 SCH-A HPLCMT-NORTH ZN,Zone Air Temperature [C] !Hourly
1204,7,SP-STORY 1 NORTH RIGHT PERIMETER SPACE SYS-3 FLR-1 SCH-A HPLCMT-NORTH ZN,Zone Air Relative Humidity [%] !Daily [Value,Min,Hour,Minute,Max,Hour,Minute]
1243,1,SP-STORY 1 SOUTH CORE SPACE SYS-3 FLR-1 SCH-A HPLCMT-CORE ZN,Zone Air Temperature [C] !Hourly
1244,7,SP-STORY 1 SOUTH CORE SPACE SYS-3 FLR-1 SCH-A HPLCMT-CORE ZN,Zone Air Relative Humidity [%] !Daily [Value,Min,Hour,Minute,Max,Hour,Minute]
1283,1,SP-STORY 1 SOUTH LOWER PERIMETER SPACE SYS-3 FLR-1 SCH-A HPLCMT-SOUTH ZN,Zone Air Temperature [C] !Hourly
1284,7,SP-STORY 1 SOUTH LOWER PERIMETER SPACE SYS-3 FLR-1 SCH-A HPLCMT-SOUTH ZN,Zone Air Relative Humidity [%] !Daily [Value,Min,Hour,Minute,Max,Hour,Minute]
1323,1,SP-STORY 1 WEST CORE SPACE SYS-3 FLR-1 SCH-A HPLCMT-CORE ZN,Zone Air Temperature [C] !Hourly
1324,7,SP-STORY 1 WEST CORE SPACE SYS-3 FLR-1 SCH-A HPLCMT-CORE ZN,Zone Air Relative Humidity [%] !Daily [Value,Min,Hour,Minute,Max,Hour,Minute]
1363,1,SP-STORY 1 WEST LEFT PERIMETER SPACE SYS-3 FLR-1 SCH-A HPLCMT-WEST ZN,Zone Air Temperature [C] !Hourly
1364,7,SP-STORY 1 WEST LEFT PERIMETER SPACE SYS-3 FLR-1 SCH-A HPLCMT-WEST ZN,Zone Air Relative Humidity [%] !Daily [Value,Min,Hour,Minute,Max,Hour,Minute]
1403,1,SP-STORY 1 WEST RIGHT PERIMETER SPACE SYS-3 FLR-1 SCH-A HPLCMT-WEST ZN,Zone Air Temperature [C] !Hourly
1404,7,SP-STORY 1 WEST RIGHT PERIMETER SPACE SYS-3 FLR-1 SCH-A HPLCMT-WEST ZN,Zone Air Relative Humidity [%] !Daily [Value,Min,Hour,Minute,Max,Hour,Minute]
1443,1,SP-STORY 2 EAST CORE SPACE SYS-3 FLR-2 SCH-A HPLCMT-CORE ZN,Zone Air Temperature [C] !Hourly
1444,7,SP-STORY 2 EAST CORE SPACE SYS-3 FLR-2 SCH-A HPLCMT-CORE ZN,Zone Air Relative Humidity [%] !Daily [Value,Min,Hour,Minute,Max,Hour,Minute]
1483,1,SP-STORY 2 EAST LEFT PERIMETER SPACE SYS-3 FLR-2 SCH-A HPLCMT-EAST ZN,Zone Air Temperature [C] !Hourly
1484,7,SP-STORY 2 EAST LEFT PERIMETER SPACE SYS-3 FLR-2 SCH-A HPLCMT-EAST ZN,Zone Air Relative Humidity [%] !Daily [Value,Min,Hour,Minute,Max,Hour,Minute]
1523,1,SP-STORY 2 EAST RIGHT PERIMETER SPACE SYS-3 FLR-2 SCH-A HPLCMT-EAST ZN,Zone Air Temperature [C] !Hourly
1524,7,SP-STORY 2 EAST RIGHT PERIMETER SPACE SYS-3 FLR-2 SCH-A HPLCMT-EAST ZN,Zone Air Relative Humidity [%] !Daily [Value,Min,Hour,Minute,Max,Hour,Minute]
1563,1,SP-STORY 2 NORTH LEFT PERIMETER SPACE SYS-3 FLR-2 SCH-A HPLCMT-NORTH ZN,Zone Air Temperature [C] !Hourly
1564,7,SP-STORY 2 NORTH LEFT PERIMETER SPACE SYS-3 FLR-2 SCH-A HPLCMT-NORTH ZN,Zone Air Relative Humidity [%] !Daily [Value,Min,Hour,Minute,Max,Hour,Minute]
1603,1,SP-STORY 2 NORTH LOWER PERIMETER SPACE SYS-3 FLR-2 SCH-A HPLCMT-NORTH ZN,Zone Air Temperature [C] !Hourly
1604,7,SP-STORY 2 NORTH LOWER PERIMETER SPACE SYS-3 FLR-2 SCH-A HPLCMT-NORTH ZN,Zone Air Relative Humidity [%] !Daily [Value,Min,Hour,Minute,Max,Hour,Minute]
1643,1,SP-STORY 2 NORTH RIGHT PERIMETER SPACE SYS-3 FLR-2 SCH-A HPLCMT-NORTH ZN,Zone Air Temperature [C] !Hourly
1644,7,SP-STORY 2 NORTH RIGHT PERIMETER SPACE SYS-3 FLR-2 SCH-A HPLCMT-NORTH ZN,Zone Air Relative Humidity [%] !Daily [Value,Min,Hour,Minute,Max,Hour,Minute]
1683,1,SP-STORY 2 SOUTH CORE SPACE SYS-3 FLR-2 SCH-A HPLCMT-CORE ZN,Zone Air Temperature [C] !Hourly
1684,7,SP-STORY 2 SOUTH CORE SPACE SYS-3 FLR-2 SCH-A HPLCMT-CORE ZN,Zone Air Relative Humidity [%] !Daily [Value,Min,Hour,Minute,Max,Hour,Minute]
1723,1,SP-STORY 2 SOUTH LOWER PERIMETER SPACE SYS-3 FLR-2 SCH-A HPLCMT-SOUTH ZN,Zone Air Temperature [C] !Hourly
1724,7,SP-STORY 2 SOUTH LOWER PERIMETER SPACE SYS-3 FLR-2 SCH-A HPLCMT-SOUTH ZN,Zone Air Relative Humidity [%] !Daily [Value,Min,Hour,Minute,Max,Hour,Minute]
1763,1,SP-STORY 2 WEST CORE SPACE SYS-3 FLR-2 SCH-A HPLCMT-CORE ZN,Zone Air Temperature [C] !Hourly
1764,7,SP-STORY 2 WEST CORE SPACE SYS-3 FLR-2 SCH-A HPLCMT-CORE ZN,Zone Air Relative Humidity [%] !Daily [Value,Min,Hour,Minute,Max,Hour,Minute]
1803,1,SP-STORY 2 WEST LEFT PERIMETER SPACE SYS-3 FLR-2 SCH-A HPLCMT-WEST ZN,Zone Air Temperature [C] !Hourly
1804,7,SP-STORY 2 WEST LEFT PERIMETER SPACE SYS-3 FLR-2 SCH-A HPLCMT-WEST ZN,Zone Air Relative Humidity [%] !Daily [Value,Min,Hour,Minute,Max,Hour,Minute]
1843,1,SP-STORY 2 WEST RIGHT PERIMETER SPACE SYS-3 FLR-2 SCH-A HPLCMT-WEST ZN,Zone Air Temperature [C] !Hourly
1844,7,SP-STORY 2 WEST RIGHT PERIMETER SPACE SYS-3 FLR-2 SCH-A HPLCMT-WEST ZN,Zone Air Relative Humidity [%] !Daily [Value,Min,Hour,Minute,Max,Hour,Minute]
10,1,Electricity:Facility [J] !TimeStep
2200,1,Gas:Facility [J] !TimeStep
End of Data Dictionary
1,OTTAWA=MACDONALD-CARTIER INTL ANN CLG .4% CONDNS DB=>MWB,  45.32, -75.67,  -5.00, 114.90
2,1, 7,21, 0, 1, 0.00,10.00,SummerDesignDay
8,19.2840458690032
10,35470684.40035741
2200,0.0
2,1, 7,21, 0, 1,10.00,20.00,SummerDesignDay
8,19.25220058801155
10,35470684.40035741
2200,0.0
2,1, 7,21, 0, 1,20.00,30.00,SummerDesignDay
8,19.2203165671003
10,35470684.40035741
2200,0.0
2,1, 7,21, 0, 1,30.00,40.00,SummerDesignDay
8,19.188388626363016
10,35470684.40035741
2200,0.0
2,1, 7,21, 0, 1,40.00,50.00,SummerDesignDay
8,19.15642770709394
10,35470684.40035741
2200,0.0
2,1, 7,21, 0, 1,50.00,60.00,SummerDesignDay
8,19.124427397166604
10,35470684.40035741
2200,0.0
2,1, 7,21, 0, 1, 0.00,60.00,SummerDesignDay
1003,25.31306623543681
1043,26.460901423482438
1083,26.50322816252094
1123,25.25119847152273
1163,25.112045629672666
1203,25.236640893246194
1243,25.139241658554029
1283,25.7964532563288
1323,25.354912355353588
1363,27.827973562444556
1403,27.69257717549546
1443,25.350099181827248
1483,26.268441382114763
1523,26.292615888237284
1563,25.18816092070739
1603,25.10554425681239
1643,25.17418541558327
1683,25.216074994880075
1723,25.70310486597495
1763,25.380921392477665
1803,27.157818266689139
1843,27.067534917585645
2,1, 7,21, 0, 2, 0.00,10.00,SummerDesignDay
8,19.103070457286994
10,35470684.40035741
2200,0.0
2,1, 7,21, 0, 2,10.00,20.00,SummerDesignDay
8,19.08170119193842
10,35470684.40035741
2200,0.0
2,1, 7,21, 0, 2,20.00,30.00,SummerDesignDay
8,19.06030939273045
10,35470684.40035741
2200,0.0
2,1, 7,21, 0, 2,30.00,40.00,SummerDesignDay
8,19.03890076386851
10,35470684.40035741
2200,0.0
2,1, 7,21, 0, 2,40.00,50.00,SummerDesignDay
8,19.01747444558601
10,35470684.40035741
2200,0.0
2,1, 7,21, 0, 2,50.00,60.00,SummerDesignDay
8,18.996036037989819
10,35470684.40035741
2200,0.0
2,1, 7,21, 0, 2, 0.00,60.00,SummerDesignDay
1003,25.120645327259468
1043,26.281132978970434
1083,26.319360825548697
1123,25.032154791834075
1163,24.909360773500656
1203,25.01612972551618
1243,24.943831140040744
1283,25.56234327906459
1323,25.163302921076128
1363,27.57006465738918
1403,27.441557838980815
1443,25.10808414441061
1483,26.09806138043233
1523,26.119363075390568
1563,24.96061133398169
1603,24.8859438968897
1643,24.944723129885835
1683,24.966777401447705
1723,25.46681952863905
1763,25.14094305773392
1803,26.961412660134486
1843,26.87202242429325
2,1, 7,21, 0, 3, 0.00,10.00,SummerDesignDay
8,18.97994058577143
10,35470684.40035741
2200,0.0
2,1, 7,21, 0, 3,10.00,20.00,SummerDesignDay
8,18.96383509390068
10,35470684.40035741
2200,0.0
2,1, 7,21, 0, 3,20.00,30.00,SummerDesignDay
8,18.947724870466826
10,35470684.40035741
2200,0.0
2,1, 7,21, 0, 3,30.00,40.00,SummerDesignDay
8,18.931599991201066
10,35470684.40035741
2200,0.0
2,1, 7,21, 0, 3,40.00,50.00,SummerDesignDay
8,18.915470425479847
10,35470684.40035741
2200,0.0
2,1, 7,21, 0, 3,50.00,60.00,SummerDesignDay
8,18.8993255989201
10,35470684.40035741
2200,0.0
2,1, 7,21, 0, 3, 0.00,60.00,SummerDesignDay
1003,24.95776254157961
1043,26.088553927874874
1083,26.121323565933186
1123,24.82983376825156
1163,24.724542683793815
1203,24.812727801341173
1243,24.78159955913655
1283,25.33920621798373
1323,25.000431425845379
1363,27.285778949034179
1403,27.166194576308944
1443,24.903099575776296
1483,25.894646884985478
1523,25.912272412217065
1563,24.736443004921595
1603,24.67046565999816
1643,24.719149172553853
1683,24.75659675544405
1723,25.223164488188293
1763,24.93698467277254
1803,26.714842148517538
1843,26.628796227178915
2,1, 7,21, 0, 4, 0.00,10.00,SummerDesignDay
8,18.883176400800605
10,35470684.40035741
2200,0.0
2,1, 7,21, 0, 4,10.00,20.00,SummerDesignDay
8,18.867011710849643
10,35470684.40035741
2200,0.0
2,1, 7,21, 0, 4,20.00,30.00,SummerDesignDay
8,18.850837592647797
10,35470684.40035741
2200,0.0
2,1, 7,21, 0, 4,30.00,40.00,SummerDesignDay
8,18.834658360362007
10,35470684.40035741
2200,0.0
2,1, 7,21, 0, 4,40.00,50.00,SummerDesignDay
8,18.8184648850153
10,35470684.40035741
2200,0.0
2,1, 7,21, 0, 4,50.00,60.00,SummerDesignDay
8,18.8022655410338
10,35470684.40035741
2200,0.0
2,1, 7,21, 0, 4, 0.00,60.00,SummerDesignDay
1003,24.809824620795486
1043,25.898034667833014
1083,25.925171573316648
1123,24.63770646680392
1163,24.54967672870343
1203,24.619775631077375
1243,24.635594889945776
1283,25.126906993880753
1323,24.852214022385796
1363,27.00366292571037
1403,26.89338749700885
1443,24.72128150185026
1483,25.682788782095149
1523,25.696696869645867
1563,24.51857873161379
1603,24.461901462516619
1643,24.50029623739958
1683,24.572832727494004
1723,24.985172154895854
1763,24.75550686240381
1803,26.4539526655666
1843,26.372336780842305
2,1, 7,21, 0, 5, 0.00,10.00,SummerDesignDay
8,18.79145567867417
10,35470684.40035741
2200,0.0
2,1, 7,21, 0, 5,10.00,20.00,SummerDesignDay
8,18.780646332866213
10,35470684.40035741
2200,0.0
2,1, 7,21, 0, 5,20.00,30.00,SummerDesignDay
8,18.76983296444122
10,35470684.40035741
2200,0.0
2,1, 7,21, 0, 5,30.00,40.00,SummerDesignDay
8,18.75901007085189
10,35470684.40035741
2200,0.0
2,1, 7,21, 0, 5,40.00,50.00,SummerDesignDay
8,18.7481869937485
10,35470684.40035741
2200,0.0
2,1, 7,21, 0, 5,50.00,60.00,SummerDesignDay
8,18.737365749092537
10,35747252.89955462
2200,0.0
2,1, 7,21, 0, 5, 0.00,60.00,SummerDesignDay
1003,24.671407638817916
1043,25.748538873698779
1083,25.851060775013698
1123,24.52679249104313
1163,24.39483674643714
1203,24.508365196319887
1243,24.499089030644556
1283,24.934715756642495
1323,24.713054659413559
1363,26.741667439146445
1403,26.63954566395657
1443,24.560575889219505
1483,25.545116553711798
1523,25.612576945592794
1563,24.398730605771108
1603,24.285718628543493
1643,24.37995145223941
1683,24.411213687393216
1723,24.777553683160794
1763,24.594291090773706
1803,26.209225766305165
1843,26.13208310161256
2,1, 7,21, 0, 6, 0.00,10.00,SummerDesignDay
8,18.7481869937485
10,36135955.85973269
2200,0.0
2,1, 7,21, 0, 6,10.00,20.00,SummerDesignDay
8,18.75901007085189
10,36277328.691452469
2200,290743.8903288579
2,1, 7,21, 0, 6,20.00,30.00,SummerDesignDay
8,18.76983296444122
10,36446871.49094266
2200,650020.0709052392
2,1, 7,21, 0, 6,30.00,40.00,SummerDesignDay
8,18.780646332866213
10,36437000.60982625
2200,933145.0631255449
2,1, 7,21, 0, 6,40.00,50.00,SummerDesignDay
8,18.79145567867417
10,36505091.063961397
2200,1191987.7396258424
2,1, 7,21, 0, 6,50.00,60.00,SummerDesignDay
8,18.8022655410338
10,36331444.11981351
2200,957544.7210698749
2,1, 7,21, 0, 6, 0.00,60.00,SummerDesignDay
1003,24.628958060750155
1043,28.36151721653562
1083,29.55525423214822
1123,25.434532042793138
1163,24.489779823204257
1203,25.429087452109738
1243,24.415195774286376
1283,24.9647936153452
1323,24.643198326465777
1363,26.665117370983884
1403,26.553066330544838
1443,24.6366633791057
1483,29.09897279810937
1523,29.31517728111888
1563,25.40811087800841
1603,24.83248965872438
1643,25.393810342146936
1683,24.417248142185973
1723,24.909133262959768
1763,24.645324814342769
1803,26.256420527783065
1843,26.179283087244227
2,1, 7,21, 0, 7, 0.00,10.00,SummerDesignDay
8,18.840052605786814
10,103020429.41625276
2200,2203782.3497490675
2,1, 7,21, 0, 7,10.00,20.00,SummerDesignDay
8,18.87778619489805
10,88896175.07142379
2200,0.0
2,1, 7,21, 0, 7,20.00,30.00,SummerDesignDay
8,18.915470425479847
10,85999663.70851077
2200,0.0
2,1, 7,21, 0, 7,30.00,40.00,SummerDesignDay
8,18.953096118062495
10,82794329.08940652
2200,0.0
2,1, 7,21, 0, 7,40.00,50.00,SummerDesignDay
8,18.99066883495391
10,82040048.98537612
2200,0.0
2,1, 7,21, 0, 7,50.00,60.00,SummerDesignDay
8,19.02819215483863
10,83293125.5088193
2200,0.0
2,1, 7,21, 0, 7, 0.00,60.00,SummerDesignDay
1003,24.01309585286656
1043,24.228221075522656
1083,24.266940761136796
1123,24.032612723380283
1163,24.004713851572377
1203,24.0327662587588
1243,24.00308166668699
1283,24.00420512073457
1323,24.010843696075196
1363,24.018599769983969
1403,24.01702630408226
1443,24.012286364709025
1483,24.240433205356174
1523,24.247839874704487
1563,24.032170180904104
1603,24.010262491942727
1643,24.031858236532718
1683,24.00013737547613
1723,24.000070185440536
1763,24.01159724921794
1803,24.012587349456017
1843,24.010991532291244
2,1, 7,21, 0, 8, 0.00,10.00,SummerDesignDay
8,19.119090922986229
10,129260480.60837953
2200,0.0
2,1, 7,21, 0, 8,10.00,20.00,SummerDesignDay
8,19.209676482065853
10,132199723.95234679
2200,0.0
2,1, 7,21, 0, 8,20.00,30.00,SummerDesignDay
8,19.299951906634847
10,134401423.26666288
2200,0.0
2,1, 7,21, 0, 8,30.00,40.00,SummerDesignDay
8,19.389928824990219
10,136594049.77030558
2200,0.0
2,1, 7,21, 0, 8,40.00,50.00,SummerDesignDay
8,19.4795823892733
10,138748869.96140845
2200,0.0
2,1, 7,21, 0, 8,50.00,60.00,SummerDesignDay
8,19.568935475929295
10,140861199.7079216
2200,0.0
2,1, 7,21, 0, 8, 0.00,60.00,SummerDesignDay
1003,23.99972182009192
1043,23.998492150368408
1083,23.998503602162189
1123,23.999603584733355
1163,23.999732813784126
1203,23.999601124015766
1243,23.9998403778706
1283,23.99987816967645
1323,23.99975938073632
1363,23.9999483832347
1403,23.99995382339468
1443,23.999486719150779
1483,23.997798222212809
1523,23.99778656037694
1563,23.999315513684633
1603,23.99943509018357
1643,23.999309447608238
1683,23.99964719972786
1723,23.99976888446673
1763,23.999530874428844
1803,23.999891159651584
1843,23.999892117800944
2,1, 7,21, 0, 9, 0.00,10.00,SummerDesignDay
8,19.66844507688812
10,267362977.81134705
2200,0.0
2,1, 7,21, 0, 9,10.00,20.00,SummerDesignDay
8,19.767573179707669
10,271401024.2461752
2200,0.0
2,1, 7,21, 0, 9,20.00,30.00,SummerDesignDay
8,19.866330746445795
10,273279401.3434087
2200,0.0
2,1, 7,21, 0, 9,30.00,40.00,SummerDesignDay
8,19.964711871061558
10,275185063.52604588
2200,0.0
2,1, 7,21, 0, 9,40.00,50.00,SummerDesignDay
8,20.062727728864816
10,276916827.7944963
2200,0.0
2,1, 7,21, 0, 9,50.00,60.00,SummerDesignDay
8,20.160375627757714
10,278536756.25620236
2200,0.0
2,1, 7,21, 0, 9, 0.00,60.00,SummerDesignDay
1003,23.998734120261586
1043,23.998580437742505
1083,23.998569033113158
1123,23.999220162113916
1163,23.999289838886726
1203,23.99921714744212
1243,23.998809259168629
1283,23.999550140640435
1323,23.998813208708243
1363,23.999853976096487
1403,23.999861995033944
1443,23.99834305172642
1483,23.99772465600043
1523,23.99770522837578
1563,23.998646986279984
1603,23.9987284676255
1643,23.998638936400324
1683,23.99848454201816
1723,23.999265387427444
1763,23.998394686082106
1803,23.999702070206508
1843,23.99970149482031
2,1, 7,21, 0,10, 0.00,10.00,SummerDesignDay
8,20.247432286023
10,304956247.2518137
2200,0.0
2,1, 7,21, 0,10,10.00,20.00,SummerDesignDay
8,20.334198251055687
10,306601809.54589948
2200,0.0
2,1, 7,21, 0,10,20.00,30.00,SummerDesignDay
8,20.420674889330156
10,307765332.562826
2200,0.0
2,1, 7,21, 0,10,30.00,40.00,SummerDesignDay
8,20.50686410461129
10,308809363.4930709
2200,0.0
2,1, 7,21, 0,10,40.00,50.00,SummerDesignDay
8,20.59277197915242
10,309691816.323845
2200,0.0
2,1, 7,21, 0,10,50.00,60.00,SummerDesignDay
8,20.67839100058158
10,310386737.5980854
2200,0.0
2,1, 7,21, 0,10, 0.00,60.00,SummerDesignDay
1003,23.99863026821981
1043,23.998677246434146
1083,23.998653770600645
1123,23.998930586098738
1163,23.999002571299287
1203,23.998926633297076
1243,23.99859494587692
1283,23.9990742879632
1323,23.998691105021736
1363,23.999756402552177
1403,23.999765766283948
1443,23.99812924586458
1483,23.9978662142113
1523,23.99784361864448
1563,23.998116381513925
1603,23.998198349711246
1643,23.998109123246335
1683,23.998186111456865
1723,23.99867262718857
1763,23.998162659897557
1803,23.99950149357063
1843,23.999500308717854
2,1, 7,21, 0,11, 0.00,10.00,SummerDesignDay
8,20.75370382828009
10,310887604.695706
2200,0.0
2,1, 7,21, 0,11,10.00,20.00,SummerDesignDay
8,20.82879725584293
10,311348000.211206
2200,0.0
2,1, 7,21, 0,11,20.00,30.00,SummerDesignDay
8,20.90366855164364
10,311807495.42472138
2200,0.0
2,1, 7,21, 0,11,30.00,40.00,SummerDesignDay
8,20.978327197140595
10,312307185.65025696
2200,0.0
2,1, 7,21, 0,11,40.00,50.00,SummerDesignDay
8,21.052770435649987
10,312887273.5731334
2200,0.0
2,1, 7,21, 0,11,50.00,60.00,SummerDesignDay
8,21.126998315025806
10,313582558.70488598
2200,0.0
2,1, 7,21, 0,11, 0.00,60.00,SummerDesignDay
1003,23.998897930210036
1043,23.999092767407743
1083,23.999071577582343
1123,23.998833562523094
1163,23.998912017523766
1203,23.998830003502204
1243,23.998796634101138
1283,23.998635221023077
1323,23.998927247632
1363,23.99970886439004
1403,23.999717352230147
1443,23.99827271832515
1483,23.99849567752999
1523,23.998478754848184
1563,23.9978911978868
1603,23.99797668817213
1643,23.997885822182967
1683,23.998268734251054
1723,23.998117173743827
1763,23.998288613915674
1803,23.99939119738407
1843,23.999390621953606
2,1, 7,21, 0,12, 0.00,10.00,SummerDesignDay
8,21.176364764512436
10,314103370.2308843
2200,0.0
2,1, 7,21, 0,12,10.00,20.00,SummerDesignDay
8,21.225636252128049
10,314751210.60460558
2200,0.0
2,1, 7,21, 0,12,20.00,30.00,SummerDesignDay
8,21.27481408813442
10,315503435.1375718
2200,0.0
2,1, 7,21, 0,12,30.00,40.00,SummerDesignDay
8,21.32389714161367
10,316315705.10347566
2200,0.0
2,1, 7,21, 0,12,40.00,50.00,SummerDesignDay
8,21.372882039030619
10,317135643.28711596
2200,0.0
2,1, 7,21, 0,12,50.00,60.00,SummerDesignDay
8,21.421778222706306
10,317929698.8816124
2200,0.0
2,1, 7,21, 0,12, 0.00,60.00,SummerDesignDay
1003,23.999051124153806
1043,23.999398838071703
1083,23.9993850143259
1123,23.998802165498053
1163,23.99888332510815
1203,23.998799779336268
1243,23.99891152485154
1283,23.99835057641009
1323,23.999062287490493
1363,23.99968679018697
1403,23.999694379862999
1443,23.99835287933468
1483,23.99895786455404
1523,23.998949108852249
1563,23.99779936419469
1603,23.997881915904647
1643,23.99779636262828
1683,23.99830483575128
1723,23.997710030661989
1763,23.99835753325655
1803,23.9993370020297
1843,23.999337612809446
2,1, 7,21, 0,13, 0.00,10.00,SummerDesignDay
8,21.460829759656176
10,314954590.5256573
2200,0.0
2,1, 7,21, 0,13,10.00,20.00,SummerDesignDay
8,21.499817003159384
10,315452143.70794299
2200,0.0
2,1, 7,21, 0,13,20.00,30.00,SummerDesignDay
8,21.53875017563149
10,316025083.7755019
2200,0.0
2,1, 7,21, 0,13,30.00,40.00,SummerDesignDay
8,21.57761871831439
10,316590548.24354729
2200,0.0
2,1, 7,21, 0,13,40.00,50.00,SummerDesignDay
8,21.616433450967234
10,317204236.66358956
2200,0.0
2,1, 7,21, 0,13,50.00,60.00,SummerDesignDay
8,21.655184624488759
10,317906220.893973
2200,0.0
2,1, 7,21, 0,13, 0.00,60.00,SummerDesignDay
1003,23.999313436006898
1043,23.999545300464918
1083,23.999535447213785
1123,23.998914690791769
1163,23.998995223085346
1203,23.998913204334135
1243,23.999200603178904
1283,23.99850923664093
1323,23.999319093755017
1363,23.999705605678956
1403,23.99971342793839
1443,23.998631396943734
1483,23.99915972369655
1523,23.9991545964393
1563,23.99792644693531
1603,23.998007179572399
1643,23.997925408823574
1683,23.998584385914996
1723,23.997785940380397
1763,23.998634674157854
1803,23.999353163854484
1843,23.99935543876751
2,1, 7,21, 0,14, 0.00,10.00,SummerDesignDay
8,21.67937576104208
10,318548657.49158516
2200,0.0
2,1, 7,21, 0,14,10.00,20.00,SummerDesignDay
8,21.703544513972305
10,319348802.550277
2200,0.0
2,1, 7,21, 0,14,20.00,30.00,SummerDesignDay
8,21.727690125397957
10,320320795.5165239
2200,0.0
2,1, 7,21, 0,14,30.00,40.00,SummerDesignDay
8,21.751812391480358
10,321467224.50933578
2200,0.0
2,1, 7,21, 0,14,40.00,50.00,SummerDesignDay
8,21.7759121945202
10,322766957.7419874
2200,0.0
2,1, 7,21, 0,14,50.00,60.00,SummerDesignDay
8,21.799989308895414
10,324183521.16686299
2200,0.0
2,1, 7,21, 0,14, 0.00,60.00,SummerDesignDay
1003,23.99943663567863
1043,23.999593342227177
1083,23.999584979919246
1123,23.998964826651318
1163,23.99904988264267
1203,23.998963861318896
1243,23.999360431184745
1283,23.998782223028959
1323,23.999440044684748
1363,23.999584820633705
1403,23.99959668909405
1443,23.998809177737074
1483,23.99922354212555
1523,23.999219932864109
1563,23.998003927179395
1603,23.998087272021466
1643,23.99800380026637
1683,23.99878654322502
1723,23.99806861684364
1763,23.99881057219626
1803,23.999203728633636
1843,23.999209145344254
2,1, 7,21, 0,15, 0.00,10.00,SummerDesignDay
8,21.799989308895414
10,328936267.13666078
2200,0.0
2,1, 7,21, 0,15,10.00,20.00,SummerDesignDay
8,21.799989308895414
10,330434776.60376617
2200,0.0
2,1, 7,21, 0,15,20.00,30.00,SummerDesignDay
8,21.799989308895414
10,331795047.7604639
2200,0.0
2,1, 7,21, 0,15,30.00,40.00,SummerDesignDay
8,21.799989308895414
10,333005243.0251752
2200,0.0
2,1, 7,21, 0,15,40.00,50.00,SummerDesignDay
8,21.799989308895414
10,334013296.9936385
2200,0.0
2,1, 7,21, 0,15,50.00,60.00,SummerDesignDay
8,21.799989308895414
10,334820881.3149784
2200,0.0
2,1, 7,21, 0,15, 0.00,60.00,SummerDesignDay
1003,23.99921592251552
1043,23.999554357109209
1083,23.999545857869494
1123,23.998817899717268
1163,23.998917929239754
1203,23.998817850908023
1243,23.99917799956337
1283,23.998910414441484
1323,23.999214658214158
1363,23.99900059004376
1403,23.99902378393365
1443,23.998617946796615
1483,23.999189769182875
1523,23.999187597595026
1563,23.998017229386084
1603,23.99805121151096
1643,23.99797080778339
1683,23.998638061109543
1723,23.998280238285277
1763,23.99860834483189
1803,23.9984809964994
1843,23.998495755800265
2,1, 7,21, 0,16, 0.00,10.00,SummerDesignDay
8,21.771094855856704
10,335031136.30967649
2200,0.0
2,1, 7,21, 0,16,10.00,20.00,SummerDesignDay
8,21.742168014681356
10,335043071.35459086
2200,0.0
2,1, 7,21, 0,16,20.00,30.00,SummerDesignDay
8,21.71320780280698
10,334868280.14453068
2200,0.0
2,1, 7,21, 0,16,30.00,40.00,SummerDesignDay
8,21.68421463192507
10,334522467.5565604
2200,0.0
2,1, 7,21, 0,16,40.00,50.00,SummerDesignDay
8,21.655184624488759
10,334018208.96311429
2200,0.0
2,1, 7,21, 0,16,50.00,60.00,SummerDesignDay
8,21.6261256071541
10,333365625.72035327
2200,0.0
2,1, 7,21, 0,16, 0.00,60.00,SummerDesignDay
1003,23.998992092200266
1043,23.999550280205118
1083,23.99954144788538
1123,23.998749717964274
1163,23.998857562990329
1203,23.998751328837974
1243,23.999000319386977
1283,23.999068213492874
1323,23.998980596510177
1363,23.998514918736125
1403,23.99853966478159
1443,23.998513891817927
1483,23.999210538387606
1523,23.99920945650651
1563,23.997896514350875
1603,23.99799016972435
1643,23.99790055989473
1683,23.998580484568945
1723,23.998544027365708
1763,23.998488032547667
1803,23.997833100196357
1843,23.997855161617126
2,1, 7,21, 0,17, 0.00,10.00,SummerDesignDay
8,21.587330220761357
10,332440754.15856507
2200,0.0
2,1, 7,21, 0,17,10.00,20.00,SummerDesignDay
8,21.548471336507889
10,331355830.09586468
2200,0.0
2,1, 7,21, 0,17,20.00,30.00,SummerDesignDay
8,21.509558190151649
10,330149253.2991587
2200,0.0
2,1, 7,21, 0,17,30.00,40.00,SummerDesignDay
8,21.470581299934044
10,328834426.74345859
2200,0.0
2,1, 7,21, 0,17,40.00,50.00,SummerDesignDay
8,21.431549204917386
10,327435756.8129289
2200,0.0
2,1, 7,21, 0,17,50.00,60.00,SummerDesignDay
8,21.392452600030727
10,325952373.0863988
2200,0.0
2,1, 7,21, 0,17, 0.00,60.00,SummerDesignDay
1003,23.998881783551018
1043,23.999580866823803
1083,23.999573214565474
1123,23.998807294896694
1163,23.998908427904
1203,23.99881006926985
1243,23.998912411348998
1283,23.999205169116505
1323,23.998865652112689
1363,23.99839087962214
1403,23.998403685058347
1443,23.99861057892012
1483,23.999288139633135
1523,23.999288143570728
1563,23.99810081594563
1603,23.998193719940777
1643,23.998107156907538
1683,23.998699587918869
1723,23.998797066824854
1763,23.99857715455497
1803,23.9976366811707
1843,23.99765606597532
2,1, 7,21, 0,18, 0.00,10.00,SummerDesignDay
8,21.343500800253975
10,310511157.2592103
2200,0.0
2,1, 7,21, 0,18,10.00,20.00,SummerDesignDay
8,21.29445517999728
10,308371155.46936687
2200,0.0
2,1, 7,21, 0,18,20.00,30.00,SummerDesignDay
8,21.24531961332415
10,306325043.1981711
2200,0.0
2,1, 7,21, 0,18,30.00,40.00,SummerDesignDay
8,21.196085706061159
10,304183949.2045909
2200,0.0
2,1, 7,21, 0,18,40.00,50.00,SummerDesignDay
8,21.146756926413827
10,301985716.9464334
2200,0.0
2,1, 7,21, 0,18,50.00,60.00,SummerDesignDay
8,21.097333755216899
10,299718137.0036894
2200,0.0
2,1, 7,21, 0,18, 0.00,60.00,SummerDesignDay
1003,23.999035430029008
1043,23.999647020499994
1083,23.999640975375717
1123,23.99890167133229
1163,23.99903024841542
1203,23.998904953164673
1243,23.99907044825441
1283,23.999351521753387
1323,23.99901960602727
1363,23.998527970882056
1403,23.99853726877498
1443,23.99892459362587
1483,23.999418029794457
1523,23.999418424796173
1563,23.99837201398115
1603,23.998477031597149
1643,23.99837938818033
1683,23.999010821273303
1723,23.99906321891731
1763,23.998892189281589
1803,23.99781587181307
1843,23.997833479065937
2,1, 7,21, 0,19, 0.00,10.00,SummerDesignDay
8,21.023019732832933
10,213214106.97041176
2200,0.0
2,1, 7,21, 0,19,10.00,20.00,SummerDesignDay
8,20.948490549703029
10,209076339.18586386
2200,0.0
2,1, 7,21, 0,19,20.00,30.00,SummerDesignDay
8,20.873745184382885
10,205786777.45618773
2200,0.0
2,1, 7,21, 0,19,30.00,40.00,SummerDesignDay
8,20.798782612519024
10,202241203.98728163
2200,0.0
2,1, 7,21, 0,19,40.00,50.00,SummerDesignDay
8,20.723605634987398
10,198521399.61790426
2200,0.0
2,1, 7,21, 0,19,50.00,60.00,SummerDesignDay
8,20.648205443782066
10,194220313.6364011
2200,0.0
2,1, 7,21, 0,19, 0.00,60.00,SummerDesignDay
1003,23.99968428121055
1043,23.99976192844252
1083,23.99975715971272
1123,23.999065813815098
1163,23.999373549378345
1203,23.999069206532508
1243,23.99971905638019
1283,23.999584088570406
1323,23.99967132634788
1363,23.99899484896704
1403,23.999024573994224
1443,23.999553441346838
1483,23.9996081970561
1523,23.999608045261465
1563,23.99871635835714
1603,23.998899679794389
1643,23.99872349191314
1683,23.99960594167526
1723,23.999402342298166
1763,23.99953321588392
1803,23.998456615743448
1843,23.99847292624068
2,1, 7,21, 0,20, 0.00,10.00,SummerDesignDay
8,20.59277197915242
10,142097813.80797405
2200,0.0
2,1, 7,21, 0,20,10.00,20.00,SummerDesignDay
8,20.537219972964399
10,137327799.946614
2200,0.0
2,1, 7,21, 0,20,20.00,30.00,SummerDesignDay
8,20.48154799091199
10,133259632.99253138
2200,0.0
2,1, 7,21, 0,20,30.00,40.00,SummerDesignDay
8,20.425752225515759
10,129339183.05289363
2200,0.0
2,1, 7,21, 0,20,40.00,50.00,SummerDesignDay
8,20.369840248455387
10,126616667.80195168
2200,0.0
2,1, 7,21, 0,20,50.00,60.00,SummerDesignDay
8,20.313807280186916
10,124477239.94212497
2200,0.0
2,1, 7,21, 0,20, 0.00,60.00,SummerDesignDay
1003,23.999994100858648
1043,23.999852489420907
1083,23.999849775858949
1123,23.999510671242619
1163,23.999735303094423
1203,23.999516037084907
1243,24.00000298390408
1283,23.999766872345153
1323,23.99998625753449
1363,23.99955701420474
1403,23.999649908403723
1443,23.999861222243469
1483,23.999765307173438
1523,23.999765075476718
1563,23.99928684626549
1603,23.999480019431887
1643,23.99929213041096
1683,23.999881576572279
1723,23.999672692823208
1763,23.999854140262035
1803,23.999306751845837
1843,23.999333117519599
2,1, 7,21, 0,21, 0.00,10.00,SummerDesignDay
8,20.267875513679358
10,122729261.95479585
2200,0.0
2,1, 7,21, 0,21,10.00,20.00,SummerDesignDay
8,20.221856772507928
10,121180541.98723641
2200,0.0
2,1, 7,21, 0,21,20.00,30.00,SummerDesignDay
8,20.17575730066602
10,119779716.13941992
2200,0.0
2,1, 7,21, 0,21,30.00,40.00,SummerDesignDay
8,20.129575525226004
10,118496922.62286636
2200,0.0
2,1, 7,21, 0,21,40.00,50.00,SummerDesignDay
8,20.08331608345884
10,117296326.38053088
2200,0.0