Program Version,EnergyPlus, Version 8.9.0-eba93e8e1b, YMD=2019.05.01 16:02
1,5,Environment Title[],Latitude[deg],Longitude[deg],Time Zone[],Elevation[m]
2,8,Day of Simulation[],Month[],Day of Month[],DST Indicator[1=yes 0=no],Hour[],StartMinute[],EndMinute[],DayType
3,5,Cumulative Day of Simulation[],Month[],Day of Month[],DST Indicator[1=yes 0=no],DayType  ! When Daily Report Variables Requested
4,2,Cumulative Days of Simulation[],Month[]  ! When Monthly Report Variables Requested
5,1,Cumulative Days of Simulation[] ! When Run Period Report Variables Requested
6,1,Calendar Year of Simulation[] ! When Annual Report Variables Requested
7,9,Environment,Site Outdoor Air Drybulb Temperature [C] !Monthly [Value,Min,Day,Hour,Minute,Max,Day,Hour,Minute]
8,1,Environment,Site Outdoor Air Wetbulb Temperature [C] !TimeStep
1003,1,STORY 1 EAST CORE SPACE ZN,Zone Air Temperature [C] !Hourly
1004,7,STORY 1 EAST CORE SPACE ZN,Zone Air Relative Humidity [%] !Daily [Value,Min,Hour,Minute,Max,Hour,Minute]
1043,1,STORY 1 EAST LEFT PERIMETER SPACE ZN,Zone Air Temperature [C] !Hourly
1044,7,STORY 1 EAST LEFT PERIMETER SPACE ZN,Zone Air Relative Humidity [%] !Daily [Value,Min,Hour,Minute,Max,Hour,Minute]
1083,1,STORY 1 EAST RIGHT PERIMETER SPACE ZN,Zone Air Temperature [C] !Hourly
1084,7,STORY 1 EAST RIGHT PERIMETER SPACE ZN,Zone Air Relative Humidity [%] !Daily [Value,Min,Hour,Minute,Max,Hour,Minute]
1123,1,STORY 1 NORTH LEFT PERIMETER SPACE ZN,Zone Air Temperature [C] !Hourly
1124,7,STORY 1 NORTH LEFT PERIMETER SPACE ZN,Zone Air Relative Humidity [%] !Daily [Value,Min,Hour,Minute,Max,Hour,Minute]
1163,1,STORY 1 NORTH LOWER PERIMETER SPACE ZN,Zone Air Temperature [C] !Hourly
1164,7,STORY 1 NORTH LOWER PERIMETER SPACE ZN,Zone Air Relative Humidity [%] !Daily [Value,Min,Hour,Minute,Max,Hour,Minute]
1203,1,STORY 1 NORTH RIGHT PERIMETER SPACE ZN,Zone Air Temperature [C] !Hourly
1204,7,STORY 1 NORTH RIGHT PERIMETER SPACE ZN,Zone Air Relative Humidity [%] !Daily [Value,Min,Hour,Minute,Max,Hour,Minute]
1243,1,STORY 1 SOUTH CORE SPACE ZN,Zone Air Temperature [C] !Hourly
1244,7,STORY 1 SOUTH CORE SPACE ZN,Zone Air Relative Humidity [%] !Daily [Value,Min,Hour,Minute,Max,Hour,Minute]
1283,1,STORY 1 SOUTH LOWER PERIMETER SPACE ZN,Zone Air Temperature [C] !Hourly
1284,7,STORY 1 SOUTH LOWER PERIMETER SPACE ZN,Zone Air Relative Humidity [%] !Daily [Value,Min,Hour,Minute,Max,Hour,Minute]
1323,1,STORY 1 WEST CORE SPACE ZN,Zone Air Temperature [C] !Hourly
1324,7,STORY 1 WEST CORE SPACE ZN,Zone Air Relative Humidity [%] !Daily [Value,Min,Hour,Minute,Max,Hour,Minute]
1363,1,STORY 1 WEST LEFT PERIMETER SPACE ZN,Zone Air Temperature [C] !Hourly
1364,7,STORY 1 WEST LEFT PERIMETER SPACE ZN,Zone Air Relative Humidity [%] !Daily [Value,Min,Hour,Minute,Max,Hour,Minute]
1403,1,STORY 1 WEST RIGHT PERIMETER SPACE ZN,Zone Air Temperature [C] !Hourly
1404,7,STORY 1 WEST RIGHT PERIMETER SPACE ZN,Zone Air Relative Humidity [%] !Daily [Value,Min,Hour,Minute,Max,Hour,Minute]
1443,1,STORY 2 EAST CORE SPACE ZN,Zone Air Temperature [C] !Hourly
1444,7,STORY 2 EAST CORE SPACE ZN,Zone Air Relative Humidity [%] !Daily [Value,Min,Hour,Minute,Max,Hour,Minute]
1483,1,STORY 2 EAST LEFT PERIMETER SPACE ZN,Zone Air Temperature [C] !Hourly
1484,7,STORY 2 EAST LEFT PERIMETER SPACE ZN,Zone Air Relative Humidity [%] !Daily [Value,Min,Hour,Minute,Max,Hour,Minute]
1523,1,STORY 2 EAST RIGHT PERIMETER SPACE ZN,Zone Air Temperature [C] !Hourly
1524,7,STORY 2 EAST RIGHT PERIMETER SPACE ZN,Zone Air Relative Humidity [%] !Daily [Value,Min,Hour,Minute,Max,Hour,Minute]
1563,1,STORY 2 NORTH LEFT PERIMETER SPACE ZN,Zone Air Temperature [C] !Hourly
1564,7,STORY 2 NORTH LEFT PERIMETER SPACE ZN,Zone Air Relative Humidity [%] !Daily [Value,Min,Hour,Minute,Max,Hour,Minute]
1603,1,STORY 2 NORTH LOWER PERIMETER SPACE ZN,Zone Air Temperature [C] !Hourly
1604,7,STORY 2 NORTH LOWER PERIMETER SPACE ZN,Zone Air Relative Humidity [%] !Daily [Value,Min,Hour,Minute,Max,Hour,Minute]
1643,1,STORY 2 NORTH RIGHT PERIMETER SPACE ZN,Zone Air Temperature [C] !Hourly
1644,7,STORY 2 NORTH RIGHT PERIMETER SPACE ZN,Zone Air Relative Humidity [%] !Daily [Value,Min,Hour,Minute,Max,Hour,Minute]
1683,1,STORY 2 SOUTH CORE SPACE ZN,Zone Air Temperature [C] !Hourly
1684,7,STORY 2 SOUTH CORE SPACE ZN,Zone Air Relative Humidity [%] !Daily [Value,Min,Hour,Minute,Max,Hour,Minute]
1723,1,STORY 2 SOUTH LOWER PERIMETER SPACE ZN,Zone Air Temperature [C] !Hourly
1724,7,STORY 2 SOUTH LOWER PERIMETER SPACE ZN,Zone Air Relative Humidity [%] !Daily [Value,Min,Hour,Minute,Max,Hour,Minute]
1763,1,STORY 2 WEST CORE SPACE ZN,Zone Air Temperature [C] !Hourly
1764,7,STORY 2 WEST CORE SPACE ZN,Zone Air Relative Humidity [%] !Daily [Value,Min,Hour,Minute,Max,Hour,Minute]
1803,1,STORY 2 WEST LEFT PERIMETER SPACE ZN,Zone Air Temperature [C] !Hourly
1804,7,STORY 2 WEST LEFT PERIMETER SPACE ZN,Zone Air Relative Humidity [%] !Daily [Value,Min,Hour,Minute,Max,Hour,Minute]
1843,1,STORY 2 WEST RIGHT PERIMETER SPACE ZN,Zone Air Temperature [C] !Hourly
1844,7,STORY 2 WEST RIGHT PERIMETER SPACE ZN,Zone Air Relative Humidity [%] !Daily [Value,Min,Hour,Minute,Max,Hour,Minute]
10,1,Electricity:Facility [J] !TimeStep
1994,1,DistrictCooling:Facility [J] !TimeStep
1957,1,DistrictHeating:Facility [J] !TimeStep
End of Data Dictionary
1,OTTAWA=MACDONALD-CARTIER INTL ANN CLG .4% CONDNS DB=>MWB,  45.32, -75.67,  -5.00, 114.90
2,1, 7,21, 0, 1, 0.00,10.00,SummerDesignDay
8,19.2840458690032
10,23106497.41420298
1957,0.0
1994,0.0
2,1, 7,21, 0, 1,10.00,20.00,SummerDesignDay
8,19.25220058801155
10,23106497.41420298
1957,0.0
1994,0.0
2,1, 7,21, 0, 1,20.00,30.00,SummerDesignDay
8,19.2203165671003
10,23106497.41420298
1957,0.0
1994,0.0
2,1, 7,21, 0, 1,30.00,40.00,SummerDesignDay
8,19.188388626363016
10,23106497.41420298
1957,0.0
1994,0.0
2,1, 7,21, 0, 1,40.00,50.00,SummerDesignDay
8,19.15642770709394
10,23106497.41420298
1957,0.0
1994,0.0
2,1, 7,21, 0, 1,50.00,60.00,SummerDesignDay
8,19.124427397166604
10,23106497.41420298
1957,0.0
1994,0.0
2,1, 7,21, 0, 1, 0.00,60.00,SummerDesignDay
1003,25.05155580347589
1043,25.363965551126119
1083,25.371073187015925
1123,24.899580119800633
1163,24.77895912620175
1203,24.88423299789615
1243,24.902006444098097
1283,25.173530646948707
1323,25.089387506878098
1363,26.713637643513296
1403,26.599027146042617
1443,24.90833833920691
1483,25.106963582088949
1523,25.105475436163
1563,24.736556705482625
1603,24.669870192449737
1643,24.72137040061914
1683,24.78695338725854
1723,24.944242938025487
1763,24.939239613265828
1803,25.95592191807617
1843,25.88153214063664
2,1, 7,21, 0, 2, 0.00,10.00,SummerDesignDay
8,19.103070457286994
10,23106497.41420298
1957,0.0
1994,0.0
2,1, 7,21, 0, 2,10.00,20.00,SummerDesignDay
8,19.08170119193842
10,23106497.41420298
1957,0.0
1994,0.0
2,1, 7,21, 0, 2,20.00,30.00,SummerDesignDay
8,19.06030939273045
10,23106497.41420298
1957,0.0
1994,0.0
2,1, 7,21, 0, 2,30.00,40.00,SummerDesignDay
8,19.03890076386851
10,23106497.41420298
1957,0.0
1994,0.0
2,1, 7,21, 0, 2,40.00,50.00,SummerDesignDay
8,19.01747444558601
10,23106497.41420298
1957,0.0
1994,0.0
2,1, 7,21, 0, 2,50.00,60.00,SummerDesignDay
8,18.996036037989819
10,23106497.41420298
1957,0.0
1994,0.0
2,1, 7,21, 0, 2, 0.00,60.00,SummerDesignDay
1003,24.84266018078009
1043,25.10317348766557
1083,25.100590520832385
1123,24.661132046350749
1163,24.561873741643969
1203,24.644643923814056
1243,24.697805522751734
1283,24.909676053495845
1323,24.88049956683329
1363,26.31233162986963
1403,26.21176825112475
1443,24.651498993089864
1483,24.8204759037619
1523,24.81162071181628
1563,24.464484685852069
1603,24.41086130538086
1643,24.447754654868125
1683,24.53123101130493
1723,24.652414769856308
1763,24.683272540019215
1803,25.59492582612489
1843,25.52825401618404
2,1, 7,21, 0, 3, 0.00,10.00,SummerDesignDay
8,18.97994058577143
10,23106497.41420298
1957,0.0
1994,0.0
2,1, 7,21, 0, 3,10.00,20.00,SummerDesignDay
8,18.96383509390068
10,23106497.41420298
1957,0.0
1994,0.0
2,1, 7,21, 0, 3,20.00,30.00,SummerDesignDay
8,18.947724870466826
10,23106497.41420298
1957,0.0
1994,0.0
2,1, 7,21, 0, 3,30.00,40.00,SummerDesignDay
8,18.931599991201066
10,23106497.41420298
1957,0.0
1994,0.0
2,1, 7,21, 0, 3,40.00,50.00,SummerDesignDay
8,18.915470425479847
10,23106497.41420298
1957,0.0
1994,0.0
2,1, 7,21, 0, 3,50.00,60.00,SummerDesignDay
8,18.8993255989201
10,23106497.41420298
1957,0.0
1994,0.0
2,1, 7,21, 0, 3, 0.00,60.00,SummerDesignDay
1003,24.664242103963148
1043,24.86326318076628
1083,24.85215162534513
1123,24.441584404049566
1163,24.36340505289937
1203,24.42429059960841
1243,24.525296720770709
1283,24.668909373470205
1323,24.70167710412049
1363,25.94672923994359
1403,25.86006627002161
1443,24.436055938209305
1483,24.549750865540877
1523,24.534804189076714
1563,24.208542610595157
1603,24.168387440393475
1643,24.19081919837382
1683,24.318935904557646
1723,24.380100147326563
1763,24.467919583242833
1803,25.25307390416206
1843,25.19396641445614
2,1, 7,21, 0, 4, 0.00,10.00,SummerDesignDay
8,18.883176400800605
10,23106497.41420298
1957,0.0
1994,0.0
2,1, 7,21, 0, 4,10.00,20.00,SummerDesignDay
8,18.867011710849643
10,23106497.41420298
1957,0.0
1994,0.0
2,1, 7,21, 0, 4,20.00,30.00,SummerDesignDay
8,18.850837592647797
10,23106497.41420298
1957,0.0
1994,0.0
2,1, 7,21, 0, 4,30.00,40.00,SummerDesignDay
8,18.834658360362007
10,23106497.41420298
1957,0.0
1994,0.0
2,1, 7,21, 0, 4,40.00,50.00,SummerDesignDay
8,18.8184648850153
10,23106497.41420298
1957,0.0
1994,0.0
2,1, 7,21, 0, 4,50.00,60.00,SummerDesignDay
8,18.8022655410338
10,23106497.41420298
1957,0.0
1994,0.0
2,1, 7,21, 0, 4, 0.00,60.00,SummerDesignDay
1003,24.499987380139588
1043,24.63616951137816
1083,24.61740617009578
1123,24.232856897804067
1163,24.17492168878613
1203,24.214952999319278
1243,24.367306363126518
1283,24.441966946479004
1323,24.53686519122942
1363,25.608268318725718
1403,25.533524158778737
1443,24.242786073218928
1483,24.29437655475756
1523,24.274318589596154
1563,23.966827267781043
1603,23.940325116408464
1643,23.94850000370185
1683,24.129878031969708
1723,24.125213776678426
1763,24.274365636516096
1803,24.931392486706895
1843,24.87945500288227
2,1, 7,21, 0, 5, 0.00,10.00,SummerDesignDay
8,18.79145567867417
10,23106497.41420298
1957,0.0
1994,0.0
2,1, 7,21, 0, 5,10.00,20.00,SummerDesignDay
8,18.780646332866213
10,23106497.41420298
1957,0.0
1994,0.0
2,1, 7,21, 0, 5,20.00,30.00,SummerDesignDay
8,18.76983296444122
10,23106497.41420298
1957,0.0
1994,0.0
2,1, 7,21, 0, 5,30.00,40.00,SummerDesignDay
8,18.75901007085189
10,23106497.41420298
1957,0.0
1994,0.0
2,1, 7,21, 0, 5,40.00,50.00,SummerDesignDay
8,18.7481869937485
10,23106497.41420298
1957,0.0
1994,0.0
2,1, 7,21, 0, 5,50.00,60.00,SummerDesignDay
8,18.737365749092537
10,23106497.41420298
1957,0.0
1994,0.0
2,1, 7,21, 0, 5, 0.00,60.00,SummerDesignDay
1003,24.349222276901079
1043,24.48700893219163
1083,24.631650680627378
1123,24.126120417574318
1163,24.012608422993386
1203,24.107983639008866
1243,24.222328328259626
1283,24.249075578884108
1323,24.385163941151146
1363,25.317265357465545
1403,25.25130800097688
1443,24.0760666395602
1483,24.206127871792629
1523,24.290142789612437
1563,23.855076450613394
1603,23.760060663283914
1643,23.836624869311096
1683,23.9666451828453
1723,23.919047473594607
1763,24.106676913134068
1803,24.664355791024844
1843,24.618044180354305
2,1, 7,21, 0, 6, 0.00,10.00,SummerDesignDay
8,18.7481869937485
10,23106497.41420298
1957,0.0
1994,0.0
2,1, 7,21, 0, 6,10.00,20.00,SummerDesignDay
8,18.75901007085189
10,23106497.41420298
1957,0.0
1994,0.0
2,1, 7,21, 0, 6,20.00,30.00,SummerDesignDay
8,18.76983296444122
10,23106497.41420298
1957,0.0
1994,0.0
2,1, 7,21, 0, 6,30.00,40.00,SummerDesignDay
8,18.780646332866213
10,23106497.41420298
1957,0.0
1994,0.0
2,1, 7,21, 0, 6,40.00,50.00,SummerDesignDay
8,18.79145567867417
10,23106497.41420298
1957,0.0
1994,0.0
2,1, 7,21, 0, 6,50.00,60.00,SummerDesignDay
8,18.8022655410338
10,23106497.41420298
1957,0.0
1994,0.0
2,1, 7,21, 0, 6, 0.00,60.00,SummerDesignDay
1003,24.30171844963088
1043,27.940254005820049
1083,29.584439389203835
1123,25.0979304059167
1163,24.113720503685714
1203,25.09449976530682
1243,24.138173080202177
1283,24.313239231592719
1323,24.31117219252987
1363,25.286264141322567
1403,25.205144689853954
1443,24.161949265004095
1483,29.08095179784981
1523,29.33268043235114
1563,24.95285026650733
1603,24.373766684833087
1643,24.939928337379855
1683,23.982794231313677
1723,24.119039582573639
1763,24.166235652568859
1803,24.80649206623563
1843,24.756732951450844
2,1, 7,21, 0, 7, 0.00,10.00,SummerDesignDay
8,18.840052605786814
10,23106497.41420298
1957,0.0
1994,194291277.75074543
2,1, 7,21, 0, 7,10.00,20.00,SummerDesignDay
8,18.87778619489805
10,23106497.41420298
1957,0.0
1994,58047869.67162384
2,1, 7,21, 0, 7,20.00,30.00,SummerDesignDay
8,18.915470425479847
10,23106497.41420298
1957,0.0
1994,123859995.77655313
2,1, 7,21, 0, 7,30.00,40.00,SummerDesignDay
8,18.953096118062495
10,23106497.41420298
1957,0.0
1994,122360592.3104949
2,1, 7,21, 0, 7,40.00,50.00,SummerDesignDay
8,18.99066883495391
10,23106497.41420298
1957,0.0
1994,127846414.60393299
2,1, 7,21, 0, 7,50.00,60.00,SummerDesignDay
8,19.02819215483863
10,23106497.41420298
1957,0.0
1994,133789062.75394161
2,1, 7,21, 0, 7, 0.00,60.00,SummerDesignDay
1003,23.923056761329876
1043,24.038389896396578
1083,24.04552159684742
1123,23.980103685728435
1163,23.99520333641461
1203,23.980087097347164
1243,23.952248834332179
1283,23.991191450000135
1323,23.91345076124149
1363,23.975791643375819
1403,23.975895551181109
1443,23.98570110967709
1483,24.043396029872338
1523,24.045676016626218
1563,23.983778920781864
1603,23.989216955684389
1643,23.983895977997809
1683,23.999147328715954
1723,23.995231895387368
1763,23.983424431510277
1803,23.985093673639246
1843,23.985684649533157
2,1, 7,21, 0, 8, 0.00,10.00,SummerDesignDay
8,19.119090922986229
10,57609547.33340686
1957,0.0
1994,177703845.5611298
2,1, 7,21, 0, 8,10.00,20.00,SummerDesignDay
8,19.209676482065853
10,57609547.33340686
1957,0.0
1994,188373229.0723855
2,1, 7,21, 0, 8,20.00,30.00,SummerDesignDay
8,19.299951906634847
10,57609547.33340686
1957,0.0
1994,196395394.0619541
2,1, 7,21, 0, 8,30.00,40.00,SummerDesignDay
8,19.389928824990219
10,57609547.33340686
1957,0.0
1994,204224590.88134296
2,1, 7,21, 0, 8,40.00,50.00,SummerDesignDay
8,19.4795823892733
10,57609547.33340686
1957,0.0
1994,211721407.962219
2,1, 7,21, 0, 8,50.00,60.00,SummerDesignDay
8,19.568935475929295
10,57609547.33340686
1957,0.0
1994,218806865.05519665
2,1, 7,21, 0, 8, 0.00,60.00,SummerDesignDay
1003,23.999999983087024
1043,24.000000000000097
1083,24.000000000000069
1123,23.999999999999984
1163,24.00000000000003
1203,24.00000000000001
1243,23.99999989988142
1283,24.000000000000026
1323,23.999999973426893
1363,24.00000000000001
1403,24.000000000000033
1443,23.999999999732919
1483,24.000000000000104
1523,24.00000000000008
1563,24.0
1603,24.00000000000001
1643,24.00000000000003
1683,24.000000000000015
1723,24.000000000000033
1763,23.999999999655058
1803,24.000000000000015
1843,24.00000000000004
2,1, 7,21, 0, 9, 0.00,10.00,SummerDesignDay
8,19.66844507688812
10,153625459.5557517
1957,0.0
1994,328068583.7113489
2,1, 7,21, 0, 9,10.00,20.00,SummerDesignDay
8,19.767573179707669
10,153625459.5557517
1957,0.0
1994,341289792.5681064
2,1, 7,21, 0, 9,20.00,30.00,SummerDesignDay
8,19.866330746445795
10,153625459.5557517
1957,0.0
1994,348339234.7200733
2,1, 7,21, 0, 9,30.00,40.00,SummerDesignDay
8,19.964711871061558
10,153625459.5557517
1957,0.0
1994,355840554.6396262
2,1, 7,21, 0, 9,40.00,50.00,SummerDesignDay
8,20.062727728864816
10,153625459.5557517
1957,0.0
1994,362337963.3425922
2,1, 7,21, 0, 9,50.00,60.00,SummerDesignDay
8,20.160375627757714
10,153625459.5557517
1957,0.0
1994,368535255.7049335
2,1, 7,21, 0, 9, 0.00,60.00,SummerDesignDay
1003,24.000000000000026
1043,24.00000000000021
1083,23.99999999999989
1123,24.000000000000069
1163,24.000000000000015
1203,24.000000000000015
1243,24.000000000000019
1283,23.999999999999987
1323,24.00000000000003
1363,24.000000000000047
1403,24.00000000000004
1443,23.999999999999987
1483,24.000000000000019
1523,24.000000000000005
1563,23.999999999999976
1603,24.000000000000033
1643,24.000000000000044
1683,24.0
1723,23.999999999999998
1763,24.0
1803,24.000000000000019
1843,24.000000000000044
2,1, 7,21, 0,10, 0.00,10.00,SummerDesignDay
8,20.247432286023
10,172828642.0002206
1957,0.0
1994,395498302.63872066
2,1, 7,21, 0,10,10.00,20.00,SummerDesignDay
8,20.334198251055687
10,172828642.0002206
1957,0.0
1994,401634826.9581422
2,1, 7,21, 0,10,20.00,30.00,SummerDesignDay
8,20.420674889330156
10,172828642.0002206
1957,0.0
1994,405920060.22807916
2,1, 7,21, 0,10,30.00,40.00,SummerDesignDay
8,20.50686410461129
10,172828642.0002206
1957,0.0
1994,409701343.2833115
2,1, 7,21, 0,10,40.00,50.00,SummerDesignDay
8,20.59277197915242
10,172828642.0002206
1957,0.0
1994,412920317.22047218
2,1, 7,21, 0,10,50.00,60.00,SummerDesignDay
8,20.67839100058158
10,172828642.0002206
1957,0.0
1994,415382188.2944571
2,1, 7,21, 0,10, 0.00,60.00,SummerDesignDay
1003,24.000000000000019
1043,24.00000000000003
1083,24.00000000000036
1123,24.000000000000019
1163,24.000000000000033
1203,23.999999999999976
1243,24.000000000000019
1283,24.00000000000003
1323,24.00000000000001
1363,24.000000000000005
1403,24.00000000000007
1443,24.000000000000069
1483,23.99999999999986
1523,24.00000000000001
1563,24.000000000000055
1603,23.99999999999997
1643,23.99999999999997
1683,24.000000000000047
1723,24.0
1763,24.000000000000019
1803,24.000000000000005
1843,24.00000000000003
2,1, 7,21, 0,11, 0.00,10.00,SummerDesignDay
8,20.75370382828009
10,172828642.0002206
1957,0.0
1994,417218081.67026057
2,1, 7,21, 0,11,10.00,20.00,SummerDesignDay
8,20.82879725584293
10,172828642.0002206
1957,0.0
1994,419084881.9770484
2,1, 7,21, 0,11,20.00,30.00,SummerDesignDay
8,20.90366855164364
10,172828642.0002206
1957,0.0
1994,421097163.2010668
2,1, 7,21, 0,11,30.00,40.00,SummerDesignDay
8,20.978327197140595
10,172828642.0002206
1957,0.0
1994,422863389.69270679
2,1, 7,21, 0,11,40.00,50.00,SummerDesignDay
8,21.052770435649987
10,172828642.0002206
1957,0.0
1994,423301510.6437857
2,1, 7,21, 0,11,50.00,60.00,SummerDesignDay
8,21.126998315025806
10,172828642.0002206
1957,0.0
1994,423902017.7630521
2,1, 7,21, 0,11, 0.00,60.00,SummerDesignDay
1003,24.000000000000019
1043,23.999999999999987
1083,23.999999999999959
1123,23.999999999999984
1163,24.0
1203,24.000000000000058
1243,24.000000000000019
1283,24.000000000000005
1323,24.00000000000001
1363,24.000000000000019
1403,24.000000000000026
1443,23.99999999999996
1483,23.99999999999979
1523,24.000000000000069
1563,24.000000000000119
1603,24.000000000000104
1643,24.000000000000005
1683,23.999999999999969
1723,24.000000000000104
1763,24.000000000000033
1803,23.999999999999959
1843,24.000000000000129
2,1, 7,21, 0,12, 0.00,10.00,SummerDesignDay
8,21.176364764512436
10,172828642.0002206
1957,0.0
1994,423926772.1305471
2,1, 7,21, 0,12,10.00,20.00,SummerDesignDay
8,21.225636252128049
10,172828642.0002206
1957,0.0
1994,424435775.3131314
2,1, 7,21, 0,12,20.00,30.00,SummerDesignDay
8,21.27481408813442
10,172828642.0002206
1957,0.0
1994,425703178.3820515
2,1, 7,21, 0,12,30.00,40.00,SummerDesignDay
8,21.32389714161367
10,172828642.0002206
1957,0.0
1994,427478347.6172934
2,1, 7,21, 0,12,40.00,50.00,SummerDesignDay
8,21.372882039030619
10,172828642.0002206
1957,0.0
1994,429481923.0101363
2,1, 7,21, 0,12,50.00,60.00,SummerDesignDay
8,21.421778222706306
10,172828642.0002206
1957,0.0
1994,431521477.4061446
2,1, 7,21, 0,12, 0.00,60.00,SummerDesignDay
1003,23.99999999999999
1043,24.000000000000005
1083,24.000000000000115
1123,24.000000000000044
1163,24.000000000000026
1203,24.00000000000001
1243,24.000000000000019
1283,23.99999999999996
1323,24.00000000000003
1363,24.000000000000026
1403,24.000000000000047
1443,24.00000000000004
1483,24.000000000000005
1523,24.000000000000076
1563,24.000000000000033
1603,24.000000000000069
1643,24.0000000000001
1683,24.000000000000019
1723,24.000000000000015
1763,24.00000000000001
1803,24.00000000000004
1843,24.000000000000033
2,1, 7,21, 0,13, 0.00,10.00,SummerDesignDay
8,21.460829759656176
10,172828642.0002206
1957,0.0
1994,419887604.56853529
2,1, 7,21, 0,13,10.00,20.00,SummerDesignDay
8,21.499817003159384
10,172828642.0002206
1957,0.0
1994,420642304.0623985
2,1, 7,21, 0,13,20.00,30.00,SummerDesignDay
8,21.53875017563149
10,172828642.0002206
1957,0.0
1994,421593664.2303041
2,1, 7,21, 0,13,30.00,40.00,SummerDesignDay
8,21.57761871831439
10,172828642.0002206
1957,0.0
1994,422761991.19782999
2,1, 7,21, 0,13,40.00,50.00,SummerDesignDay
8,21.616433450967234
10,172828642.0002206
1957,0.0
1994,424270763.2397674
2,1, 7,21, 0,13,50.00,60.00,SummerDesignDay
8,21.655184624488759
10,172828642.0002206
1957,0.0
1994,426135664.81325098
2,1, 7,21, 0,13, 0.00,60.00,SummerDesignDay
1003,24.000000000000019
1043,24.0000000000001
1083,24.0000000000002
1123,24.000000000000044
1163,24.0
1203,24.000000000000069
1243,24.000000000000005
1283,24.00000000000001
1323,23.99999999999999
1363,24.000000000000047
1403,23.999999999999955
1443,24.000000000000005
1483,24.000000000000115
1523,24.00000000000004
1563,24.00000000000006
1603,24.000000000000097
1643,24.000000000000097
1683,23.999999999999998
1723,24.00000000000004
1763,23.999999999999976
1803,24.00000000000003
1843,24.00000000000007
2,1, 7,21, 0,14, 0.00,10.00,SummerDesignDay
8,21.67937576104208
10,172828642.0002206
1957,0.0
1994,427897831.0873182
2,1, 7,21, 0,14,10.00,20.00,SummerDesignDay
8,21.703544513972305
10,172828642.0002206
1957,0.0
1994,430102052.9612053
2,1, 7,21, 0,14,20.00,30.00,SummerDesignDay
8,21.727690125397957
10,172828642.0002206
1957,0.0
1994,432787075.47728118
2,1, 7,21, 0,14,30.00,40.00,SummerDesignDay
8,21.751812391480358
10,172828642.0002206
1957,0.0
1994,435966825.4243401
2,1, 7,21, 0,14,40.00,50.00,SummerDesignDay
8,21.7759121945202
10,172828642.0002206
1957,0.0
1994,439599510.36673107
2,1, 7,21, 0,14,50.00,60.00,SummerDesignDay
8,21.799989308895414
10,172828642.0002206
1957,0.0
1994,443608496.6946119
2,1, 7,21, 0,14, 0.00,60.00,SummerDesignDay
1003,24.000000000000019
1043,23.999999999999934
1083,24.000000000000044
1123,23.999999999999959
1163,24.000000000000044
1203,24.00000000000003
1243,24.00000000000001
1283,24.000000000000154
1323,24.000000000000019
1363,24.000000000000104
1403,24.000000000000033
1443,24.000000000000033
1483,24.00000000000017
1523,24.000000000000055
1563,24.000000000000129
1603,24.00000000000001
1643,24.00000000000017
1683,23.999999999999987
1723,24.00000000000006
1763,24.000000000000005
1803,24.000000000000047
1843,24.000000000000015
2,1, 7,21, 0,15, 0.00,10.00,SummerDesignDay
8,21.799989308895414
10,172828642.0002206
1957,0.0
1994,460271418.28952518
2,1, 7,21, 0,15,10.00,20.00,SummerDesignDay
8,21.799989308895414
10,172828642.0002206
1957,0.0
1994,465469784.35795947
2,1, 7,21, 0,15,20.00,30.00,SummerDesignDay
8,21.799989308895414
10,172828642.0002206
1957,0.0
1994,470407424.03683307
2,1, 7,21, 0,15,30.00,40.00,SummerDesignDay
8,21.799989308895414
10,172828642.0002206
1957,0.0
1994,474708405.3030497
2,1, 7,21, 0,15,40.00,50.00,SummerDesignDay
8,21.799989308895414
10,172828642.0002206
1957,0.0
1994,478259173.3527765
2,1, 7,21, 0,15,50.00,60.00,SummerDesignDay
8,21.799989308895414
10,172828642.0002206
1957,0.0
1994,481157493.3633079
2,1, 7,21, 0,15, 0.00,60.00,SummerDesignDay
1003,24.000000000000026
1043,24.000000000000033
1083,24.00000000000006
1123,24.0000000000001
1163,23.999999999999998
1203,24.00000000000007
1243,24.0
1283,24.000000000000015
1323,24.00000000000001
1363,23.999999999999984
1403,23.999999999999998
1443,24.000000000000058
1483,24.0
1523,24.0
1563,24.00000000000006
1603,24.000000000000126
1643,24.00000000000004
1683,23.99999999999994
1723,24.000000000000097
1763,23.999999999999984
1803,23.999999999999959
1843,24.000000000000225
2,1, 7,21, 0,16, 0.00,10.00,SummerDesignDay
8,21.771094855856704
10,172828642.0002206
1957,0.0
1994,482455312.8089332
2,1, 7,21, 0,16,10.00,20.00,SummerDesignDay
8,21.742168014681356
10,172828642.0002206
1957,0.0
1994,483172061.8943392
2,1, 7,21, 0,16,20.00,30.00,SummerDesignDay
8,21.71320780280698
10,172828642.0002206
1957,0.0
1994,483335621.732649
2,1, 7,21, 0,16,30.00,40.00,SummerDesignDay
8,21.68421463192507
10,172828642.0002206
1957,0.0
1994,482966791.74018099
2,1, 7,21, 0,16,40.00,50.00,SummerDesignDay
8,21.655184624488759
10,172828642.0002206
1957,0.0
1994,482084880.7129388
2,1, 7,21, 0,16,50.00,60.00,SummerDesignDay
8,21.6261256071541
10,172828642.0002206
1957,0.0
1994,480709684.56803658
2,1, 7,21, 0,16, 0.00,60.00,SummerDesignDay
1003,24.000000000000033
1043,23.99999999999986
1083,24.000000000000097
1123,24.0
1163,24.00000000000003
1203,23.999999999999998
1243,24.00000000000001
1283,23.999999999999934
1323,24.000000000000033
1363,23.999999999999664
1403,24.000000000000019
1443,23.999999999999987
1483,24.00000000000007
1523,24.000000000000044
1563,24.000000000000104
1603,24.000000000000055
1643,24.000000000000119
1683,24.000000000000047
1723,24.00000000000007
1763,24.0
1803,24.000000000000058
1843,24.00000000000021
2,1, 7,21, 0,17, 0.00,10.00,SummerDesignDay
8,21.587330220761357
10,172828642.0002206
1957,0.0
1994,478520960.6570313
2,1, 7,21, 0,17,10.00,20.00,SummerDesignDay
8,21.548471336507889
10,172828642.0002206
1957,0.0
1994,475814534.2123127
2,1, 7,21, 0,17,20.00,30.00,SummerDesignDay
8,21.509558190151649
10,172828642.0002206
1957,0.0
1994,472685085.67276468
2,1, 7,21, 0,17,30.00,40.00,SummerDesignDay
8,21.470581299934044
10,172828642.0002206
1957,0.0
1994,469169107.4789689
2,1, 7,21, 0,17,40.00,50.00,SummerDesignDay
8,21.431549204917386
10,172828642.0002206
1957,0.0
1994,465339935.1697651
2,1, 7,21, 0,17,50.00,60.00,SummerDesignDay
8,21.392452600030727
10,172828642.0002206
1957,0.0
1994,461187114.1031047
2,1, 7,21, 0,17, 0.00,60.00,SummerDesignDay
1003,24.00000000000004
1043,24.000000000000044
1083,24.000000000000097
1123,24.0
1163,24.00000000000004
1203,24.000000000000044
1243,24.000000000000055
1283,24.000000000000047
1323,24.000000000000005
1363,24.000000000000239
1403,24.000000000000076
1443,24.00000000000003
1483,24.000000000000097
1523,24.00000000000007
1563,24.000000000000069
1603,24.00000000000009
1643,24.000000000000076
1683,23.999999999999987
1723,23.999999999999984
1763,23.999999999999998
1803,24.000000000000005
1843,24.000000000000058
2,1, 7,21, 0,18, 0.00,10.00,SummerDesignDay
8,21.343500800253975
10,162628730.35039733
1957,0.0
1994,443424522.9312776
2,1, 7,21, 0,18,10.00,20.00,SummerDesignDay
8,21.29445517999728
10,162628730.35039733
1957,0.0
1994,436877961.91812887
2,1, 7,21, 0,18,20.00,30.00,SummerDesignDay
8,21.24531961332415
10,162628730.35039733
1957,0.0
1994,430637933.23854467
2,1, 7,21, 0,18,30.00,40.00,SummerDesignDay
8,21.196085706061159
10,162628730.35039733
1957,0.0
1994,424156222.8899871
2,1, 7,21, 0,18,40.00,50.00,SummerDesignDay
8,21.146756926413827
10,162628730.35039733
1957,0.0
1994,417454721.64428529
2,1, 7,21, 0,18,50.00,60.00,SummerDesignDay
8,21.097333755216899
10,162628730.35039733
1957,0.0
1994,410311050.45548799
2,1, 7,21, 0,18, 0.00,60.00,SummerDesignDay
1003,24.0
1043,24.00000000000007
1083,24.000000000000047
1123,24.000000000000026
1163,24.0
1203,24.00000000000008
1243,24.000000000000026
1283,24.000000000000005
1323,24.000000000000033
1363,23.99999999999987
1403,23.999999999999987
1443,24.000000000000047
1483,24.000000000000019
1523,24.00000000000001
1563,23.999999999999998
1603,24.00000000000008
1643,24.000000000000055
1683,24.000000000000019
1723,24.000000000000005
1763,24.0
1803,23.999999999999955
1843,24.000000000000076
2,1, 7,21, 0,19, 0.00,10.00,SummerDesignDay
8,21.023019732832933
10,96015912.22234476
1957,0.0
1994,336356610.3225118
2,1, 7,21, 0,19,10.00,20.00,SummerDesignDay
8,20.948490549703029
10,96015912.22234476
1957,0.0
1994,321811964.38248476
2,1, 7,21, 0,19,20.00,30.00,SummerDesignDay
8,20.873745184382885
10,96015912.22234476
1957,0.0
1994,310365816.2339204
2,1, 7,21, 0,19,30.00,40.00,SummerDesignDay
8,20.798782612519024
10,96015912.22234476
1957,0.0
1994,298238563.9490144
2,1, 7,21, 0,19,40.00,50.00,SummerDesignDay
8,20.723605634987398
10,96015912.22234476
1957,0.0
1994,285576209.78125587
2,1, 7,21, 0,19,50.00,60.00,SummerDesignDay
8,20.648205443782066
10,96015912.22234476
1957,0.0
1994,271079081.28410038
2,1, 7,21, 0,19, 0.00,60.00,SummerDesignDay
1003,24.000000000000015
1043,23.999999999999987
1083,23.999999999999948
1123,24.000000000000026
1163,24.000000000000019
1203,24.00000000000003
1243,24.0
1283,24.000000000000058
1323,24.000000000000019
1363,23.999999999999976
1403,24.000000000000055
1443,24.00000000000001
1483,24.00000000000004
1523,24.000000000000019
1563,23.99999999999996
1603,24.000000000000019
1643,24.000000000000026
1683,24.000000000000019
1723,24.00000000000004
1763,24.000000000000047
1803,24.000000000000168
1843,24.00000000000023
2,1, 7,21, 0,20, 0.00,10.00,SummerDesignDay
8,20.59277197915242
10,57609547.33340686
1957,0.0
1994,224802389.33168826
2,1, 7,21, 0,20,10.00,20.00,SummerDesignDay
8,20.537219972964399
10,57609547.33340686
1957,0.0
1994,210056247.96268396
2,1, 7,21, 0,20,20.00,30.00,SummerDesignDay
8,20.48154799091199
10,57609547.33340686
1957,0.0
1994,197632642.5087093
2,1, 7,21, 0,20,30.00,40.00,SummerDesignDay
8,20.425752225515759
10,57609547.33340686
1957,0.0
1994,186584331.6017285
2,1, 7,21, 0,20,40.00,50.00,SummerDesignDay
8,20.369840248455387
10,57609547.33340686
1957,0.0
1994,179428880.4702154
2,1, 7,21, 0,20,50.00,60.00,SummerDesignDay
8,20.313807280186916
10,57609547.33340686
1957,0.0
1994,173727388.22747819
2,1, 7,21, 0,20, 0.00,60.00,SummerDesignDay
1003,23.999999999999998
1043,24.00000000000001
1083,24.000000000000026
1123,24.00000000000004
1163,24.000000000000019
1203,24.00000000000003
1243,24.0
1283,24.000000000000005
1323,24.000000000000015
1363,24.000000000000033
1403,24.000000000000026
1443,24.000000000000019
1483,24.000000000000026
1523,24.000000000000026
1563,24.000000000000015
1603,24.000000000000047
1643,24.00000000000003
1683,24.000000000000015
1723,24.000000000000019