Program Version,EnergyPlus, Version 9.1.0-fafb9d5652, YMD=2019.10.28 18:36
1,5,Environment Title[],Latitude[deg],Longitude[deg],Time Zone[],Elevation[m]
2,8,Day of Simulation[],Month[],Day of Month[],DST Indicator[1=yes 0=no],Hour[],StartMinute[],EndMinute[],DayType
3,5,Cumulative Day of Simulation[],Month[],Day of Month[],DST Indicator[1=yes 0=no],DayType  ! When Daily Report Variables Requested
4,2,Cumulative Days of Simulation[],Month[]  ! When Monthly Report Variables Requested
5,1,Cumulative Days of Simulation[] ! When Run Period Report Variables Requested
6,1,Calendar Year of Simulation[] ! When Annual Report Variables Requested
7,9,Environment,Site Outdoor Air Drybulb Temperature [C] !Monthly [Value,Min,Day,Hour,Minute,Max,Day,Hour,Minute]
8,1,Environment,Site Outdoor Air Wetbulb Temperature [C] !TimeStep
547,1,STORY 1 CORE SPACE ZN,Zone Air Temperature [C] !Hourly
548,7,STORY 1 CORE SPACE ZN,Zone Air Relative Humidity [%] !Daily [Value,Min,Hour,Minute,Max,Hour,Minute]
587,1,STORY 1 EAST PERIMETER SPACE ZN,Zone Air Temperature [C] !Hourly
588,7,STORY 1 EAST PERIMETER SPACE ZN,Zone Air Relative Humidity [%] !Daily [Value,Min,Hour,Minute,Max,Hour,Minute]
627,1,STORY 1 NORTH PERIMETER SPACE ZN,Zone Air Temperature [C] !Hourly
628,7,STORY 1 NORTH PERIMETER SPACE ZN,Zone Air Relative Humidity [%] !Daily [Value,Min,Hour,Minute,Max,Hour,Minute]
667,1,STORY 1 SOUTH PERIMETER SPACE ZN,Zone Air Temperature [C] !Hourly
668,7,STORY 1 SOUTH PERIMETER SPACE ZN,Zone Air Relative Humidity [%] !Daily [Value,Min,Hour,Minute,Max,Hour,Minute]
707,1,STORY 1 WEST PERIMETER SPACE ZN,Zone Air Temperature [C] !Hourly
708,7,STORY 1 WEST PERIMETER SPACE ZN,Zone Air Relative Humidity [%] !Daily [Value,Min,Hour,Minute,Max,Hour,Minute]
747,1,STORY 2 CORE SPACE ZN,Zone Air Temperature [C] !Hourly
748,7,STORY 2 CORE SPACE ZN,Zone Air Relative Humidity [%] !Daily [Value,Min,Hour,Minute,Max,Hour,Minute]
787,1,STORY 2 EAST PERIMETER SPACE ZN,Zone Air Temperature [C] !Hourly
788,7,STORY 2 EAST PERIMETER SPACE ZN,Zone Air Relative Humidity [%] !Daily [Value,Min,Hour,Minute,Max,Hour,Minute]
827,1,STORY 2 NORTH PERIMETER SPACE ZN,Zone Air Temperature [C] !Hourly
828,7,STORY 2 NORTH PERIMETER SPACE ZN,Zone Air Relative Humidity [%] !Daily [Value,Min,Hour,Minute,Max,Hour,Minute]
867,1,STORY 2 SOUTH PERIMETER SPACE ZN,Zone Air Temperature [C] !Hourly
868,7,STORY 2 SOUTH PERIMETER SPACE ZN,Zone Air Relative Humidity [%] !Daily [Value,Min,Hour,Minute,Max,Hour,Minute]
907,1,STORY 2 WEST PERIMETER SPACE ZN,Zone Air Temperature [C] !Hourly
908,7,STORY 2 WEST PERIMETER SPACE ZN,Zone Air Relative Humidity [%] !Daily [Value,Min,Hour,Minute,Max,Hour,Minute]
10,1,Electricity:Facility [J] !TimeStep
1058,1,DistrictCooling:Facility [J] !TimeStep
1021,1,DistrictHeating:Facility [J] !TimeStep
End of Data Dictionary
1,OTTAWA=MACDONALD-CARTIER INTL ANN CLG .4% CONDNS DB=>MWB,  45.32, -75.67,  -5.00, 114.90
2,1, 7,21, 0, 1, 0.00,10.00,SummerDesignDay
8,19.2840458690032
10,23106497.414203008
1021,0.0
1058,0.0
2,1, 7,21, 0, 1,10.00,20.00,SummerDesignDay
8,19.25220058801155
10,23106497.414203008
1021,0.0
1058,0.0
2,1, 7,21, 0, 1,20.00,30.00,SummerDesignDay
8,19.2203165671003
10,23106497.414203008
1021,0.0
1058,0.0
2,1, 7,21, 0, 1,30.00,40.00,SummerDesignDay
8,19.188388626363016
10,23106497.414203008
1021,0.0
1058,0.0
2,1, 7,21, 0, 1,40.00,50.00,SummerDesignDay
8,19.15642770709394
10,23106497.414203008
1021,0.0
1058,0.0
2,1, 7,21, 0, 1,50.00,60.00,SummerDesignDay
8,19.124427397166604
10,23106497.414203008
1021,0.0
1058,0.0
2,1, 7,21, 0, 1, 0.00,60.00,SummerDesignDay
547,24.970450957014298
587,25.55823747593777
627,25.07006321847153
667,25.390276204023079
707,26.68099314054251
747,24.824984487983014
787,25.29582353295358
827,24.9003966440299
867,25.170400539649149
907,26.122623228770637
2,1, 7,21, 0, 2, 0.00,10.00,SummerDesignDay
8,19.103070457286994
10,23106497.414203008
1021,0.0
1058,0.0
2,1, 7,21, 0, 2,10.00,20.00,SummerDesignDay
8,19.08170119193842
10,23106497.414203008
1021,0.0
1058,0.0
2,1, 7,21, 0, 2,20.00,30.00,SummerDesignDay
8,19.06030939273045
10,23106497.414203008
1021,0.0
1058,0.0
2,1, 7,21, 0, 2,30.00,40.00,SummerDesignDay
8,19.03890076386851
10,23106497.414203008
1021,0.0
1058,0.0
2,1, 7,21, 0, 2,40.00,50.00,SummerDesignDay
8,19.01747444558601
10,23106497.414203008
1021,0.0
1058,0.0
2,1, 7,21, 0, 2,50.00,60.00,SummerDesignDay
8,18.996036037989819
10,23106497.414203008
1021,0.0
1058,0.0
2,1, 7,21, 0, 2, 0.00,60.00,SummerDesignDay
547,24.757362221886966
587,25.300769361798275
627,24.839253831071983
667,25.144654868249089
707,26.346184183992209
747,24.562252246511986
787,24.99302294692144
827,24.615931768360686
867,24.875617144267424
907,25.774825967898566
2,1, 7,21, 0, 3, 0.00,10.00,SummerDesignDay
8,18.97994058577143
10,23106497.414203008
1021,0.0
1058,0.0
2,1, 7,21, 0, 3,10.00,20.00,SummerDesignDay
8,18.96383509390068
10,23106497.414203008
1021,0.0
1058,0.0
2,1, 7,21, 0, 3,20.00,30.00,SummerDesignDay
8,18.947724870466826
10,23106497.414203008
1021,0.0
1058,0.0
2,1, 7,21, 0, 3,30.00,40.00,SummerDesignDay
8,18.931599991201066
10,23106497.414203008
1021,0.0
1058,0.0
2,1, 7,21, 0, 3,40.00,50.00,SummerDesignDay
8,18.915470425479847
10,23106497.414203008
1021,0.0
1058,0.0
2,1, 7,21, 0, 3,50.00,60.00,SummerDesignDay
8,18.8993255989201
10,23106497.414203008
1021,0.0
1058,0.0
2,1, 7,21, 0, 3, 0.00,60.00,SummerDesignDay
547,24.57823676975822
587,25.0711321290656
627,24.635127495421349
667,24.926049024999938
707,26.045795202320269
747,24.349083184320905
787,24.722648376452687
827,24.36487107002579
867,24.613126859511117
907,25.45785228056766
2,1, 7,21, 0, 4, 0.00,10.00,SummerDesignDay
8,18.883176400800605
10,23106497.414203008
1021,0.0
1058,0.0
2,1, 7,21, 0, 4,10.00,20.00,SummerDesignDay
8,18.867011710849643
10,23106497.414203008
1021,0.0
1058,0.0
2,1, 7,21, 0, 4,20.00,30.00,SummerDesignDay
8,18.850837592647797
10,23106497.414203008
1021,0.0
1058,0.0
2,1, 7,21, 0, 4,30.00,40.00,SummerDesignDay
8,18.834658360362007
10,23106497.414203008
1021,0.0
1058,0.0
2,1, 7,21, 0, 4,40.00,50.00,SummerDesignDay
8,18.8184648850153
10,23106497.414203008
1021,0.0
1058,0.0
2,1, 7,21, 0, 4,50.00,60.00,SummerDesignDay
8,18.8022655410338
10,23106497.414203008
1021,0.0
1058,0.0
2,1, 7,21, 0, 4, 0.00,60.00,SummerDesignDay
547,24.41496857282714
587,24.85511310954536
627,24.44324407648416
667,24.720299680155408
707,25.764677653097026
747,24.161096956757559
787,24.474630495257043
827,24.135688855196169
867,24.37256156266233
907,25.164267485685074
2,1, 7,21, 0, 5, 0.00,10.00,SummerDesignDay
8,18.79145567867417
10,23106497.414203008
1021,0.0
1058,0.0
2,1, 7,21, 0, 5,10.00,20.00,SummerDesignDay
8,18.780646332866213
10,23106497.414203008
1021,0.0
1058,0.0
2,1, 7,21, 0, 5,20.00,30.00,SummerDesignDay
8,18.76983296444122
10,23106497.414203008
1021,0.0
1058,0.0
2,1, 7,21, 0, 5,30.00,40.00,SummerDesignDay
8,18.75901007085189
10,23106497.414203008
1021,0.0
1058,0.0
2,1, 7,21, 0, 5,40.00,50.00,SummerDesignDay
8,18.7481869937485
10,23106497.414203008
1021,0.0
1058,0.0
2,1, 7,21, 0, 5,50.00,60.00,SummerDesignDay
8,18.737365749092537
10,23106497.414203008
1021,0.0
1058,0.0
2,1, 7,21, 0, 5, 0.00,60.00,SummerDesignDay
547,24.260639692625067
587,24.74557241019669
627,24.296049387523074
667,24.532926679201905
707,25.507901032904713
747,23.996897205315589
787,24.393870856588149
827,23.993258963474046
867,24.17105746637146
907,24.913423948140694
2,1, 7,21, 0, 6, 0.00,10.00,SummerDesignDay
8,18.7481869937485
10,23106497.414203008
1021,0.0
1058,0.0
2,1, 7,21, 0, 6,10.00,20.00,SummerDesignDay
8,18.75901007085189
10,23106497.414203008
1021,0.0
1058,0.0
2,1, 7,21, 0, 6,20.00,30.00,SummerDesignDay
8,18.76983296444122
10,23106497.414203008
1021,0.0
1058,0.0
2,1, 7,21, 0, 6,30.00,40.00,SummerDesignDay
8,18.780646332866213
10,23106497.414203008
1021,0.0
1058,0.0
2,1, 7,21, 0, 6,40.00,50.00,SummerDesignDay
8,18.79145567867417
10,23106497.414203008
1021,0.0
1058,0.0
2,1, 7,21, 0, 6,50.00,60.00,SummerDesignDay
8,18.8022655410338
10,23106497.414203008
1021,0.0
1058,0.0
2,1, 7,21, 0, 6, 0.00,60.00,SummerDesignDay
547,24.17432070558309
587,27.172070948114443
627,24.680377221372596
667,24.499841974768118
707,25.407474810040385
747,24.05477753520769
787,27.55861966727629
827,24.72678558482711
867,24.33085627428508
907,25.02038378128836
2,1, 7,21, 0, 7, 0.00,10.00,SummerDesignDay
8,18.840052605786814
10,23106497.414203008
1021,0.0
1058,150347483.33501295
2,1, 7,21, 0, 7,10.00,20.00,SummerDesignDay
8,18.87778619489805
10,23106497.414203008
1021,0.0
1058,10505287.214576353
2,1, 7,21, 0, 7,20.00,30.00,SummerDesignDay
8,18.915470425479847
10,23106497.414203008
1021,0.0
1058,80964670.76320385
2,1, 7,21, 0, 7,30.00,40.00,SummerDesignDay
8,18.953096118062495
10,23106497.414203008
1021,0.0
1058,93016930.1464597
2,1, 7,21, 0, 7,40.00,50.00,SummerDesignDay
8,18.99066883495391
10,23106497.414203008
1021,0.0
1058,89404012.5549378
2,1, 7,21, 0, 7,50.00,60.00,SummerDesignDay
8,19.02819215483863
10,23106497.414203008
1021,0.0
1058,93169994.8323161
2,1, 7,21, 0, 7, 0.00,60.00,SummerDesignDay
547,23.950802685973146
587,23.98644821881038
627,23.922431491636755
667,23.94157870482864
707,23.875680855350326
747,23.987056633856115
787,23.994385876293749
827,23.941879543255444
867,23.977080713166104
907,23.9330252432639
2,1, 7,21, 0, 8, 0.00,10.00,SummerDesignDay
8,19.119090922986229
10,57609547.33340692
1021,0.0
1058,133129089.14913509
2,1, 7,21, 0, 8,10.00,20.00,SummerDesignDay
8,19.209676482065853
10,57609547.33340692
1021,0.0
1058,141107207.3660645
2,1, 7,21, 0, 8,20.00,30.00,SummerDesignDay
8,19.299951906634847
10,57609547.33340692
1021,0.0
1058,147358493.2433602
2,1, 7,21, 0, 8,30.00,40.00,SummerDesignDay
8,19.389928824990219
10,57609547.33340692
1021,0.0
1058,153813109.33259074
2,1, 7,21, 0, 8,40.00,50.00,SummerDesignDay
8,19.4795823892733
10,57609547.33340692
1021,0.0
1058,160099705.94748009
2,1, 7,21, 0, 8,50.00,60.00,SummerDesignDay
8,19.568935475929295
10,57609547.33340692
1021,0.0
1058,166228413.49142427
2,1, 7,21, 0, 8, 0.00,60.00,SummerDesignDay
547,23.99999999096454
587,24.000000000000147
627,23.999999999960889
667,23.999999999981573
707,23.99999999959012
747,23.999999999996886
787,24.000000000000097
827,23.99999999976122
867,23.999999999980618
907,23.999999999542003
2,1, 7,21, 0, 9, 0.00,10.00,SummerDesignDay
8,19.66844507688812
10,153625459.55575187
1021,0.0
1058,280421193.21580556
2,1, 7,21, 0, 9,10.00,20.00,SummerDesignDay
8,19.767573179707669
10,153625459.55575187
1021,0.0
1058,293265406.72928658
2,1, 7,21, 0, 9,20.00,30.00,SummerDesignDay
8,19.866330746445795
10,153625459.55575187
1021,0.0
1058,298287050.31433299
2,1, 7,21, 0, 9,30.00,40.00,SummerDesignDay
8,19.964711871061558
10,153625459.55575187
1021,0.0
1058,303299639.97566297
2,1, 7,21, 0, 9,40.00,50.00,SummerDesignDay
8,20.062727728864816
10,153625459.55575187
1021,0.0
1058,310007206.8026059
2,1, 7,21, 0, 9,50.00,60.00,SummerDesignDay
8,20.160375627757714
10,153625459.55575187
1021,0.0
1058,317181595.2245097
2,1, 7,21, 0, 9, 0.00,60.00,SummerDesignDay
547,24.000000000000015
587,23.99999999999996
627,24.0
667,24.000000000000033
707,24.00000000000004
747,24.000000000000058
787,23.999999999999998
827,24.000000000000033
867,23.999999999999987
907,24.00000000000009
2,1, 7,21, 0,10, 0.00,10.00,SummerDesignDay
8,20.247432286023
10,172828642.0002208
1021,0.0
1058,346074930.7796526
2,1, 7,21, 0,10,10.00,20.00,SummerDesignDay
8,20.334198251055687
10,172828642.0002208
1021,0.0
1058,353704117.3959843
2,1, 7,21, 0,10,20.00,30.00,SummerDesignDay
8,20.420674889330156
10,172828642.0002208
1021,0.0
1058,358898002.1619603
2,1, 7,21, 0,10,30.00,40.00,SummerDesignDay
8,20.50686410461129
10,172828642.0002208
1021,0.0
1058,363390462.8732722
2,1, 7,21, 0,10,40.00,50.00,SummerDesignDay
8,20.59277197915242
10,172828642.0002208
1021,0.0
1058,367608640.76878359
2,1, 7,21, 0,10,50.00,60.00,SummerDesignDay
8,20.67839100058158
10,172828642.0002208
1021,0.0
1058,371587357.1180615
2,1, 7,21, 0,10, 0.00,60.00,SummerDesignDay
547,24.00000000000001
587,24.00000000000008
627,24.00000000000001
667,23.999999999999955
707,23.999999999999948
747,24.0
787,24.000000000000047
827,24.00000000000006
867,24.000000000000097
907,23.999999999999998
2,1, 7,21, 0,11, 0.00,10.00,SummerDesignDay
8,20.75370382828009
10,172828642.0002208
1021,0.0
1058,375291340.45417156
2,1, 7,21, 0,11,10.00,20.00,SummerDesignDay
8,20.82879725584293
10,172828642.0002208
1021,0.0
1058,379032388.80910667
2,1, 7,21, 0,11,20.00,30.00,SummerDesignDay
8,20.90366855164364
10,172828642.0002208
1021,0.0
1058,382579354.9300732
2,1, 7,21, 0,11,30.00,40.00,SummerDesignDay
8,20.978327197140595
10,172828642.0002208
1021,0.0
1058,385986629.00285759
2,1, 7,21, 0,11,40.00,50.00,SummerDesignDay
8,21.052770435649987
10,172828642.0002208
1021,0.0
1058,389377196.454527
2,1, 7,21, 0,11,50.00,60.00,SummerDesignDay
8,21.126998315025806
10,172828642.0002208
1021,0.0
1058,392961451.08647117
2,1, 7,21, 0,11, 0.00,60.00,SummerDesignDay
547,24.000000000000026
587,23.999999999999976
627,24.000000000000019
667,23.999999999999959
707,24.00000000000003
747,24.000000000000129
787,24.000000000000047
827,24.000000000000076
867,24.00000000000003
907,24.000000000000055
2,1, 7,21, 0,12, 0.00,10.00,SummerDesignDay
8,21.176364764512436
10,172828642.0002208
1021,0.0
1058,394539780.87220779
2,1, 7,21, 0,12,10.00,20.00,SummerDesignDay
8,21.225636252128049
10,172828642.0002208
1021,0.0
1058,395336828.1432227
2,1, 7,21, 0,12,20.00,30.00,SummerDesignDay
8,21.27481408813442
10,172828642.0002208
1021,0.0
1058,396704363.8177742
2,1, 7,21, 0,12,30.00,40.00,SummerDesignDay
8,21.32389714161367
10,172828642.0002208
1021,0.0
1058,398555976.2324335
2,1, 7,21, 0,12,40.00,50.00,SummerDesignDay
8,21.372882039030619
10,172828642.0002208
1021,0.0
1058,400608308.9189642
2,1, 7,21, 0,12,50.00,60.00,SummerDesignDay
8,21.421778222706306
10,172828642.0002208
1021,0.0
1058,402746370.4008194
2,1, 7,21, 0,12, 0.00,60.00,SummerDesignDay
547,24.00000000000004
587,24.0000000000001
627,24.000000000000015
667,24.00000000000001
707,24.000000000000069
747,24.000000000000019
787,24.00000000000004
827,24.00000000000003
867,24.000000000000044
907,24.00000000000008
2,1, 7,21, 0,13, 0.00,10.00,SummerDesignDay
8,21.460829759656176
10,172828642.0002208
1021,0.0
1058,391250560.5750312
2,1, 7,21, 0,13,10.00,20.00,SummerDesignDay
8,21.499817003159384
10,172828642.0002208
1021,0.0
1058,392046733.0316006
2,1, 7,21, 0,13,20.00,30.00,SummerDesignDay
8,21.53875017563149
10,172828642.0002208
1021,0.0
1058,392941679.1750915
2,1, 7,21, 0,13,30.00,40.00,SummerDesignDay
8,21.57761871831439
10,172828642.0002208
1021,0.0
1058,393942191.0378214
2,1, 7,21, 0,13,40.00,50.00,SummerDesignDay
8,21.616433450967234
10,172828642.0002208
1021,0.0
1058,395195445.3716378
2,1, 7,21, 0,13,50.00,60.00,SummerDesignDay
8,21.655184624488759
10,172828642.0002208
1021,0.0
1058,396683878.41535237
2,1, 7,21, 0,13, 0.00,60.00,SummerDesignDay
547,23.99999999999999
587,24.000000000000047
627,24.000000000000058
667,24.000000000000005
707,24.000000000000087
747,23.999999999999984
787,24.000000000000087
827,23.999999999999927
867,24.000000000000076
907,24.000000000000058
2,1, 7,21, 0,14, 0.00,10.00,SummerDesignDay
8,21.67937576104208
10,172828642.0002208
1021,0.0
1058,397907420.36064007
2,1, 7,21, 0,14,10.00,20.00,SummerDesignDay
8,21.703544513972305
10,172828642.0002208
1021,0.0
1058,399329069.1810007
2,1, 7,21, 0,14,20.00,30.00,SummerDesignDay
8,21.727690125397957
10,172828642.0002208
1021,0.0
1058,400949418.64778998
2,1, 7,21, 0,14,30.00,40.00,SummerDesignDay
8,21.751812391480358
10,172828642.0002208
1021,0.0
1058,402764726.5424359
2,1, 7,21, 0,14,40.00,50.00,SummerDesignDay
8,21.7759121945202
10,172828642.0002208
1021,0.0
1058,404738480.9934304
2,1, 7,21, 0,14,50.00,60.00,SummerDesignDay
8,21.799989308895414
10,172828642.0002208
1021,0.0
1058,406823606.6760271
2,1, 7,21, 0,14, 0.00,60.00,SummerDesignDay
547,24.000000000000019
587,24.0
627,23.999999999999987
667,24.000000000000055
707,24.00000000000003
747,24.00000000000004
787,24.000000000000076
827,24.000000000000026
867,24.000000000000033
907,24.000000000000026
2,1, 7,21, 0,15, 0.00,10.00,SummerDesignDay
8,21.799989308895414
10,172828642.0002208
1021,0.0
1058,421326761.59948959
2,1, 7,21, 0,15,10.00,20.00,SummerDesignDay
8,21.799989308895414
10,172828642.0002208
1021,0.0
1058,424164219.44511857
2,1, 7,21, 0,15,20.00,30.00,SummerDesignDay
8,21.799989308895414
10,172828642.0002208
1021,0.0
1058,426707220.2674219
2,1, 7,21, 0,15,30.00,40.00,SummerDesignDay
8,21.799989308895414
10,172828642.0002208
1021,0.0
1058,428742136.35287639
2,1, 7,21, 0,15,40.00,50.00,SummerDesignDay
8,21.799989308895414
10,172828642.0002208
1021,0.0
1058,430132642.84045878
2,1, 7,21, 0,15,50.00,60.00,SummerDesignDay
8,21.799989308895414
10,172828642.0002208
1021,0.0
1058,430971236.75284019
2,1, 7,21, 0,15, 0.00,60.00,SummerDesignDay
547,24.000000000000019
587,24.000000000000044
627,24.000000000000019
667,24.000000000000026
707,24.00000000000003
747,24.00000000000004
787,24.000000000000015
827,24.000000000000055
867,24.00000000000013
907,24.000000000000015
2,1, 7,21, 0,16, 0.00,10.00,SummerDesignDay
8,21.771094855856704
10,172828642.0002208
1021,0.0
1058,430420935.0503523
2,1, 7,21, 0,16,10.00,20.00,SummerDesignDay
8,21.742168014681356
10,172828642.0002208
1021,0.0
1058,429491608.259027
2,1, 7,21, 0,16,20.00,30.00,SummerDesignDay
8,21.71320780280698
10,172828642.0002208
1021,0.0
1058,428250456.2826441
2,1, 7,21, 0,16,30.00,40.00,SummerDesignDay
8,21.68421463192507
10,172828642.0002208
1021,0.0
1058,426680649.5395911
2,1, 7,21, 0,16,40.00,50.00,SummerDesignDay
8,21.655184624488759
10,172828642.0002208
1021,0.0
1058,424796851.3098348
2,1, 7,21, 0,16,50.00,60.00,SummerDesignDay
8,21.6261256071541
10,172828642.0002208
1021,0.0
1058,422609770.8950429
2,1, 7,21, 0,16, 0.00,60.00,SummerDesignDay
547,24.0
587,24.00000000000006
627,24.000000000000055
667,24.00000000000004
707,24.000000000000175
747,23.999999999999987
787,23.999999999999976
827,23.999999999999955
867,24.000000000000044
907,24.000000000000115
2,1, 7,21, 0,17, 0.00,10.00,SummerDesignDay
8,21.587330220761357
10,172828642.0002208
1021,0.0
1058,419806699.77637329
2,1, 7,21, 0,17,10.00,20.00,SummerDesignDay
8,21.548471336507889
10,172828642.0002208
1021,0.0
1058,416583155.7679303
2,1, 7,21, 0,17,20.00,30.00,SummerDesignDay
8,21.509558190151649
10,172828642.0002208
1021,0.0
1058,413165156.76893976
2,1, 7,21, 0,17,30.00,40.00,SummerDesignDay
8,21.470581299934044
10,172828642.0002208
1021,0.0
1058,409565284.54936876
2,1, 7,21, 0,17,40.00,50.00,SummerDesignDay
8,21.431549204917386
10,172828642.0002208
1021,0.0
1058,405888531.09957107
2,1, 7,21, 0,17,50.00,60.00,SummerDesignDay
8,21.392452600030727
10,172828642.0002208
1021,0.0
1058,402100804.3543467
2,1, 7,21, 0,17, 0.00,60.00,SummerDesignDay
547,23.999999999999976
587,24.0
627,24.000000000000047
667,24.00000000000004
707,24.000000000000005
747,24.000000000000026
787,24.00000000000013
827,24.000000000000019
867,23.99999999999991
907,24.000000000000115
2,1, 7,21, 0,18, 0.00,10.00,SummerDesignDay
8,21.343500800253975
10,162628730.3503975
1021,0.0
1058,384889813.9435948
2,1, 7,21, 0,18,10.00,20.00,SummerDesignDay
8,21.29445517999728
10,162628730.3503975
1021,0.0
1058,379209889.37990489
2,1, 7,21, 0,18,20.00,30.00,SummerDesignDay
8,21.24531961332415
10,162628730.3503975
1021,0.0
1058,374016188.57904449
2,1, 7,21, 0,18,30.00,40.00,SummerDesignDay
8,21.196085706061159
10,162628730.3503975
1021,0.0
1058,368807119.9889148
2,1, 7,21, 0,18,40.00,50.00,SummerDesignDay
8,21.146756926413827
10,162628730.3503975
1021,0.0
1058,363312842.72581389
2,1, 7,21, 0,18,50.00,60.00,SummerDesignDay
8,21.097333755216899
10,162628730.3503975
1021,0.0
1058,357493867.2940229
2,1, 7,21, 0,18, 0.00,60.00,SummerDesignDay
547,24.0
587,24.000000000000005
627,24.000000000000033
667,23.999999999999998
707,24.000000000000058
747,24.000000000000033
787,24.000000000000044
827,24.000000000000047
867,24.00000000000003
907,24.000000000000047
2,1, 7,21, 0,19, 0.00,10.00,SummerDesignDay
8,21.023019732832933
10,96015912.22234485
1021,0.0
1058,284708507.49339559
2,1, 7,21, 0,19,10.00,20.00,SummerDesignDay
8,20.948490549703029
10,96015912.22234485
1021,0.0
1058,272994357.86373928
2,1, 7,21, 0,19,20.00,30.00,SummerDesignDay
8,20.873745184382885
10,96015912.22234485
1021,0.0
1058,264752054.4559554
2,1, 7,21, 0,19,30.00,40.00,SummerDesignDay
8,20.798782612519024
10,96015912.22234485
1021,0.0
1058,256049315.9102044
2,1, 7,21, 0,19,40.00,50.00,SummerDesignDay
8,20.723605634987398
10,96015912.22234485
1021,0.0
1058,247522511.74016238
2,1, 7,21, 0,19,50.00,60.00,SummerDesignDay
8,20.648205443782066
10,96015912.22234485
1021,0.0
1058,238867002.80433373
2,1, 7,21, 0,19, 0.00,60.00,SummerDesignDay
547,24.00000000000003
587,24.000000000000069
627,24.00000000000003
667,24.000000000000005
707,24.000000000000069
747,24.000000000000019
787,24.000000000000058
827,24.00000000000001
867,24.000000000000015
907,24.00000000000008
2,1, 7,21, 0,20, 0.00,10.00,SummerDesignDay
8,20.59277197915242
10,57609547.33340692
1021,0.0
1058,198997944.76315249
2,1, 7,21, 0,20,10.00,20.00,SummerDesignDay
8,20.537219972964399
10,57609547.33340692
1021,0.0
1058,188754962.8466281
2,1, 7,21, 0,20,20.00,30.00,SummerDesignDay
8,20.48154799091199
10,57609547.33340692
1021,0.0
1058,180305501.47452937
2,1, 7,21, 0,20,30.00,40.00,SummerDesignDay
8,20.425752225515759
10,57609547.33340692
1021,0.0
1058,171488651.01631139
2,1, 7,21, 0,20,40.00,50.00,SummerDesignDay
8,20.369840248455387
10,57609547.33340692
1021,0.0
1058,165920672.45752395
2,1, 7,21, 0,20,50.00,60.00,SummerDesignDay
8,20.313807280186916
10,57609547.33340692
1021,0.0
1058,161692211.63685424
2,1, 7,21, 0,20, 0.00,60.00,SummerDesignDay
547,24.00000000000001
587,24.000000000000019
627,24.000000000000015
667,24.000000000000019
707,23.99999999999996
747,24.000000000000005
787,24.000000000000019
827,24.000000000000019
867,24.000000000000015
907,24.000000000000097
2,1, 7,21, 0,21, 0.00,10.00,SummerDesignDay
8,20.267875513679358
10,57609547.33340692
1021,0.0
1058,158119940.66034285
2,1, 7,21, 0,21,10.00,20.00,SummerDesignDay
8,20.221856772507928
10,57609547.33340692
1021,0.0
1058,154807802.267435
2,1, 7,21, 0,21,20.00,30.00,SummerDesignDay
8,20.17575730066602
10,57609547.33340692
1021,0.0
1058,151621866.37907473
2,1, 7,21, 0,21,30.00,40.00,SummerDesignDay
8,20.129575525226004
10,57609547.33340692
1021,0.0
1058,148590530.20688079
2,1, 7,21, 0,21,40.00,50.00,SummerDesignDay
8,20.08331608345884
10,57609547.33340692
1021,0.0
1058,145744404.19466607
2,1, 7,21, 0,21,50.00,60.00,SummerDesignDay
8,20.03696962431749
10,57609547.33340692
1021,0.0
1058,142996194.7066293
2,1, 7,21, 0,21, 0.00,60.00,SummerDesignDay
547,24.0
587,24.00000000000001
627,24.000000000000015
667,24.000000000000005
707,24.000000000000055
747,24.000000000000015
787,24.000000000000026
827,24.000000000000015
867,24.000000000000005
907,24.00000000000004
2,1, 7,21, 0,22, 0.00,10.00,SummerDesignDay
8,19.99054090879275
10,28206453.23911466
1021,0.0
1058,0.0
2,1, 7,21, 0,22,10.00,20.00,SummerDesignDay
8,19.944033557607388
10,28206453.23911466
1021,0.0
1058,0.0
2,1, 7,21, 0,22,20.00,30.00,SummerDesignDay
8,19.89743885871503
10,28206453.23911466
1021,0.0
1058,0.0
2,1, 7,21, 0,22,30.00,40.00,SummerDesignDay
8,19.850760861623937
10,28206453.23911466
1021,0.0
1058,0.0
2,1, 7,21, 0,22,40.00,50.00,SummerDesignDay
8,19.804003776854694
10,28206453.23911466
1021,0.0
1058,0.0
2,1, 7,21, 0,22,50.00,60.00,SummerDesignDay
8,19.757157595162949
10,28206453.23911466
1021,0.0
1058,0.0
2,1, 7,21, 0,22, 0.00,60.00,SummerDesignDay
547,24.86178327269783
587,25.551562906182825
627,25.171231697493103
667,25.410249009675185
707,26.464788641340893
747,24.886553638266276
787,25.33513531186549
827,25.064226002203115
867,25.24044083669465
907,25.93742271430165
2,1, 7,21, 0,23, 0.00,10.00,SummerDesignDay
8,19.720666551636989
10,28206453.23911466
1021,0.0
1058,0.0
2,1, 7,21, 0,23,10.00,20.00,SummerDesignDay
8,19.684119477065886
10,28206453.23911466
1021,0.0
1058,0.0
2,1, 7,21, 0,23,20.00,30.00,SummerDesignDay
8,19.647526513618759
10,28206453.23911466
1021,0.0
1058,0.0
2,1, 7,21, 0,23,30.00,40.00,SummerDesignDay
8,19.6108822727292
10,28206453.23911466
1021,0.0
1058,0.0
2,1, 7,21, 0,23,40.00,50.00,SummerDesignDay
8,19.574181717726309
10,28206453.23911466
1021,0.0
1058,0.0
2,1, 7,21, 0,23,50.00,60.00,SummerDesignDay
8,19.537434025172329
10,28206453.23911466
1021,0.0
1058,0.0
2,1, 7,21, 0,23, 0.00,60.00,SummerDesignDay
547,25.4105754004532
587,26.097113856447636
627,25.56914118676686
667,25.907710360034419
707,27.308617398616339
747,25.390116022043434
787,25.81944750802587
827,25.41914813186769
867,25.684353783769685
907,26.674914567982659
2,1, 7,21, 0,24, 0.00,10.00,SummerDesignDay
8,19.50063519373203
10,23106497.414203008
1021,0.0
1058,0.0
2,1, 7,21, 0,24,10.00,20.00,SummerDesignDay
8,19.463780045562748
10,23106497.414203008
1021,0.0
1058,0.0
2,1, 7,21, 0,24,20.00,30.00,SummerDesignDay
8,19.42687776521098
10,23106497.414203008
1021,0.0
1058,0.0
2,1, 7,21, 0,24,30.00,40.00,SummerDesignDay
8,19.389928824990219
10,23106497.414203008
1021,0.0
1058,0.0
2,1, 7,21, 0,24,40.00,50.00,SummerDesignDay
8,19.352911582935034
10,23106497.414203008
1021,0.0
1058,0.0
2,1, 7,21, 0,24,50.00,60.00,SummerDesignDay
8,19.31585289854638
10,23106497.414203008
1021,0.0
1058,0.0
2,1, 7,21, 0,24, 0.00,60.00,SummerDesignDay
547,25.23675729633491
587,25.846412940373754
627,25.33109668448184
667,25.66526007340094
707,27.03276869117896
747,25.15477916362963
787,25.605284350627217
827,25.197510104163553
867,25.472641948638786
907,26.46889634786193
3,1, 7,21, 0,SummerDesignDay
548,57.311750935678137,48.71324647011782,18,60,68.29427484182583, 7, 3
588,48.95991016859781,41.55617163008364, 8,60,65.67831171681917, 5,40
628,53.310586956540507,43.361815480860169,20,10,68.08559876764055, 7, 3
668,52.272169562998197,42.37416059398224,14,10,68.24466722281713, 7, 3
708,49.769138116552998,39.856347569430749,22,15,67.89940003985756, 7, 3
748,55.23322901310465,44.01061909580149,14,60,68.69850437875295, 5,60
788,50.67542690584826,42.183595251654249, 8,60,67.51631907864291, 5,30
828,53.65920485488302,43.65613836384101,14,50,68.85855304770313, 5,40
868,53.26603865030134,42.810964051133719,13,50,68.21391707134905, 7, 2
908,51.02370611652531,42.27609698004632,18,20,67.87044960997557, 7, 3
4,1, 7
7,25.183875000000005,20.5,21, 5,60,30.6,21,14,60
1,OTTAWA=MACDONALD-CARTIER INTL ANN HTG 99.6% CONDNS DB,  45.32, -75.67,  -5.00, 114.90
2,1, 1,21, 0, 1, 0.00,10.00,WinterDesignDay
8,-24.2
10,23106497.414203008
1021,287421752.7099281
1058,0.0
2,1, 1,21, 0, 1,10.00,20.00,WinterDesignDay
8,-24.2
10,23106497.414203008
1021,288812072.932736
1058,0.0
2,1, 1,21, 0, 1,20.00,30.00,WinterDesignDay
8,-24.2
10,23106497.414203008
1021,290157072.7881846
1058,0.0
2,1, 1,21, 0, 1,30.00,40.00,WinterDesignDay
8,-24.2
10,23106497.414203008
1021,291460542.818733
1058,0.0
2,1, 1,21, 0, 1,40.00,50.00,WinterDesignDay
8,-24.2
10,23106497.414203008
1021,292723780.5506493
1058,0.0
2,1, 1,21, 0, 1,50.00,60.00,WinterDesignDay
8,-24.2
10,23106497.414203008
1021,293954159.7330096
1058,0.0
2,1, 1,21, 0, 1, 0.00,60.00,WinterDesignDay
547,18.00000000000002
587,18.0
627,17.999999999999969
667,17.999999999999984
707,17.999999999999998
747,17.999999999999998
787,18.00000000000002
827,17.99999999999999
867,18.00000000000001
907,18.000000000000097
2,1, 1,21, 0, 2, 0.00,10.00,WinterDesignDay
8,-24.2
10,23106497.414203008
1021,295161555.51319369
1058,0.0
2,1, 1,21, 0, 2,10.00,20.00,WinterDesignDay
8,-24.2
10,23106497.414203008
1021,296340202.5761805
1058,0.0
2,1, 1,21, 0, 2,20.00,30.00,WinterDesignDay
8,-24.2
10,23106497.414203008
1021,297491009.6350803
1058,0.0
2,1, 1,21, 0, 2,30.00,40.00,WinterDesignDay
8,-24.2
10,23106497.414203008
1021,298611867.9732108
1058,0.0
2,1, 1,21, 0, 2,40.00,50.00,WinterDesignDay
8,-24.2
10,23106497.414203008
1021,299723360.3180016
1058,0.0
2,1, 1,21, 0, 2,50.00,60.00,WinterDesignDay
8,-24.2
10,23106497.414203008
1021,300832330.23489049
1058,0.0
2,1, 1,21, 0, 2, 0.00,60.00,WinterDesignDay
547,18.00000000000002
587,17.999999999999998
627,17.99999999999997
667,18.00000000000001
707,17.999999999999976
747,17.999999999999976
787,18.000000000000047
827,18.000000000000087
867,18.000000000000019
907,18.000000000000055
2,1, 1,21, 0, 3, 0.00,10.00,WinterDesignDay
8,-24.2
10,23106497.414203008
1021,301923667.0917232
1058,0.0
2,1, 1,21, 0, 3,10.00,20.00,WinterDesignDay
8,-24.2
10,23106497.414203008
1021,302998628.4231739
1058,0.0
2,1, 1,21, 0, 3,20.00,30.00,WinterDesignDay
8,-24.2
10,23106497.414203008
1021,304056866.63234576
1058,0.0
2,1, 1,21, 0, 3,30.00,40.00,WinterDesignDay
8,-24.2
10,23106497.414203008
1021,305098194.39241167
1058,0.0
2,1, 1,21, 0, 3,40.00,50.00,WinterDesignDay
8,-24.2
10,23106497.414203008
1021,306122542.5177022
1058,0.0
2,1, 1,21, 0, 3,50.00,60.00,WinterDesignDay
8,-24.2
10,23106497.414203008
1021,307129916.3153405
1058,0.0
2,1, 1,21, 0, 3, 0.00,60.00,WinterDesignDay
547,18.000000000000019
587,18.000000000000026
627,18.00000000000001
667,17.999999999999987
707,18.0
747,17.999999999999987
787,18.00000000000003
827,18.000000000000047
867,18.000000000000069
907,18.000000000000019
2,1, 1,21, 0, 4, 0.00,10.00,WinterDesignDay
8,-24.2
10,23106497.414203008
1021,308120368.91304376
1058,0.0
2,1, 1,21, 0, 4,10.00,20.00,WinterDesignDay
8,-24.2
10,23106497.414203008
1021,309093985.01724669
1058,0.0
2,1, 1,21, 0, 4,20.00,30.00,WinterDesignDay
8,-24.2
10,23106497.414203008
1021,310050870.5724425
1058,0.0
2,1, 1,21, 0, 4,30.00,40.00,WinterDesignDay
8,-24.2
10,23106497.414203008
1021,310991145.7928989
1058,0.0
2,1, 1,21, 0, 4,40.00,50.00,WinterDesignDay
8,-24.2
10,23106497.414203008
1021,311914940.153054
1058,0.0
2,1, 1,21, 0, 4,50.00,60.00,WinterDesignDay
8,-24.2
10,23106497.414203008
1021,312822388.5132862
1058,0.0
2,1, 1,21, 0, 4, 0.00,60.00,WinterDesignDay
547,18.000000000000015
587,17.999999999999987
627,17.99999999999999
667,18.000000000000015
707,17.999999999999976
747,18.000000000000015
787,18.000000000000069