Program Version,EnergyPlus, Version 8.9.0-eba93e8e1b, YMD=2018.11.01 15:51
1,5,Environment Title[],Latitude[deg],Longitude[deg],Time Zone[],Elevation[m]
2,8,Day of Simulation[],Month[],Day of Month[],DST Indicator[1=yes 0=no],Hour[],StartMinute[],EndMinute[],DayType
3,5,Cumulative Day of Simulation[],Month[],Day of Month[],DST Indicator[1=yes 0=no],DayType  ! When Daily Report Variables Requested
4,2,Cumulative Days of Simulation[],Month[]  ! When Monthly Report Variables Requested
5,1,Cumulative Days of Simulation[] ! When Run Period Report Variables Requested
6,1,Calendar Year of Simulation[] ! When Annual Report Variables Requested
7,9,Environment,Site Outdoor Air Drybulb Temperature [C] !Monthly [Value,Min,Day,Hour,Minute,Max,Day,Hour,Minute]
8,1,Environment,Site Outdoor Air Wetbulb Temperature [C] !TimeStep
555,1,SP-ATTIC SYS-0 FLR-2 SCH-- UNDEFINED - HPLCMT-CORE ZN,Zone Air Temperature [C] !Hourly
556,7,SP-ATTIC SYS-0 FLR-2 SCH-- UNDEFINED - HPLCMT-CORE ZN,Zone Air Relative Humidity [%] !Daily [Value,Min,Hour,Minute,Max,Hour,Minute]
595,1,SP-CORE_ZN SYS-3 FLR-1 SCH-A HPLCMT-CORE ZN,Zone Air Temperature [C] !Hourly
596,7,SP-CORE_ZN SYS-3 FLR-1 SCH-A HPLCMT-CORE ZN,Zone Air Relative Humidity [%] !Daily [Value,Min,Hour,Minute,Max,Hour,Minute]
635,1,SP-PERIMETER_ZN_1 SYS-3 FLR-1 SCH-A HPLCMT-SOUTH ZN,Zone Air Temperature [C] !Hourly
636,7,SP-PERIMETER_ZN_1 SYS-3 FLR-1 SCH-A HPLCMT-SOUTH ZN,Zone Air Relative Humidity [%] !Daily [Value,Min,Hour,Minute,Max,Hour,Minute]
675,1,SP-PERIMETER_ZN_2 SYS-3 FLR-1 SCH-A HPLCMT-EAST ZN,Zone Air Temperature [C] !Hourly
676,7,SP-PERIMETER_ZN_2 SYS-3 FLR-1 SCH-A HPLCMT-EAST ZN,Zone Air Relative Humidity [%] !Daily [Value,Min,Hour,Minute,Max,Hour,Minute]
715,1,SP-PERIMETER_ZN_3 SYS-3 FLR-1 SCH-A HPLCMT-NORTH ZN,Zone Air Temperature [C] !Hourly
716,7,SP-PERIMETER_ZN_3 SYS-3 FLR-1 SCH-A HPLCMT-NORTH ZN,Zone Air Relative Humidity [%] !Daily [Value,Min,Hour,Minute,Max,Hour,Minute]
755,1,SP-PERIMETER_ZN_4 SYS-3 FLR-1 SCH-A HPLCMT-WEST ZN,Zone Air Temperature [C] !Hourly
756,7,SP-PERIMETER_ZN_4 SYS-3 FLR-1 SCH-A HPLCMT-WEST ZN,Zone Air Relative Humidity [%] !Daily [Value,Min,Hour,Minute,Max,Hour,Minute]
10,1,Electricity:Facility [J] !TimeStep
321,1,Gas:Facility [J] !TimeStep
End of Data Dictionary
1,VICTORIA INTL AP ANN CLG .4% CONDNS DB=>MWB,  48.65,-123.43,  -8.00,  19.50
2,1, 7,21, 0, 1, 0.00,10.00,SummerDesignDay
8,14.721558796240082
10,1802988.836190988
321,12000.0
2,1, 7,21, 0, 1,10.00,20.00,SummerDesignDay
8,14.683643112241779
10,1802988.836190988
321,12000.0
2,1, 7,21, 0, 1,20.00,30.00,SummerDesignDay
8,14.645675956341917
10,1802988.836190988
321,12000.0
2,1, 7,21, 0, 1,30.00,40.00,SummerDesignDay
8,14.607657453743608
10,1802988.836190988
321,12000.0
2,1, 7,21, 0, 1,40.00,50.00,SummerDesignDay
8,14.569587142603464
10,1802988.836190988
321,12000.0
2,1, 7,21, 0, 1,50.00,60.00,SummerDesignDay
8,14.531465598243408
10,1802988.836190988
321,79692.1885075679
2,1, 7,21, 0, 1, 0.00,60.00,SummerDesignDay
555,24.780959093023566
595,25.354559197568233
635,25.50437178223875
675,26.350834870431119
715,25.240178778833607
755,27.053095659364645
2,1, 7,21, 0, 2, 0.00,10.00,SummerDesignDay
8,14.506020466548057
10,1802988.836190988
321,500175.1171617495
2,1, 7,21, 0, 2,10.00,20.00,SummerDesignDay
8,14.480552329220564
10,1802988.836190988
321,12000.0
2,1, 7,21, 0, 2,20.00,30.00,SummerDesignDay
8,14.45506128680188
10,1802988.836190988
321,12000.0
2,1, 7,21, 0, 2,30.00,40.00,SummerDesignDay
8,14.429552759423784
10,1802988.836190988
321,12000.0
2,1, 7,21, 0, 2,40.00,50.00,SummerDesignDay
8,14.40401519621358
10,1802988.836190988
321,12000.0
2,1, 7,21, 0, 2,50.00,60.00,SummerDesignDay
8,14.378454720466636
10,1802988.836190988
321,12000.0
2,1, 7,21, 0, 2, 0.00,60.00,SummerDesignDay
555,24.595681373952549
595,25.163893501163459
635,25.283668277184149
675,26.157232919936935
715,25.03210124771675
755,26.84727423524647
2,1, 7,21, 0, 3, 0.00,10.00,SummerDesignDay
8,14.359273536304685
10,1802988.836190988
321,552632.9725042025
2,1, 7,21, 0, 3,10.00,20.00,SummerDesignDay
8,14.34007345588328
10,1802988.836190988
321,12000.0
2,1, 7,21, 0, 3,20.00,30.00,SummerDesignDay
8,14.320860276172415
10,1802988.836190988
321,12000.0
2,1, 7,21, 0, 3,30.00,40.00,SummerDesignDay
8,14.301639855760449
10,1802988.836190988
321,12000.0
2,1, 7,21, 0, 3,40.00,50.00,SummerDesignDay
8,14.282400578681767
10,1802988.836190988
321,12000.0
2,1, 7,21, 0, 3,50.00,60.00,SummerDesignDay
8,14.263153718277712
10,1802988.836190988
321,12000.0
2,1, 7,21, 0, 3, 0.00,60.00,SummerDesignDay
555,24.424716491923076
595,24.99331883984279
635,25.08601990891239
675,25.969886584292977
715,24.843336296162265
755,26.644158316824276
2,1, 7,21, 0, 4, 0.00,10.00,SummerDesignDay
8,14.243888085256792
10,1802988.836190988
321,555180.9549066773
2,1, 7,21, 0, 4,10.00,20.00,SummerDesignDay
8,14.224615248968539
10,1802988.836190988
321,12000.0
2,1, 7,21, 0, 4,20.00,30.00,SummerDesignDay
8,14.205323357892459
10,1802988.836190988
321,12000.0
2,1, 7,21, 0, 4,30.00,40.00,SummerDesignDay
8,14.186024186016255
10,1802988.836190988
321,12000.0
2,1, 7,21, 0, 4,40.00,50.00,SummerDesignDay
8,14.166706078206925
10,1802988.836190988
321,12000.0
2,1, 7,21, 0, 4,50.00,60.00,SummerDesignDay
8,14.14737449004363
10,1802988.836190988
321,12000.0
2,1, 7,21, 0, 4, 0.00,60.00,SummerDesignDay
555,24.26013017764282
595,24.832520635110698
635,24.900567384413674
675,25.787719404624199
715,24.664471235779059
755,26.44718648637031
2,1, 7,21, 0, 5, 0.00,10.00,SummerDesignDay
8,14.134483503136803
10,1802988.836190988
321,557747.6002750163
2,1, 7,21, 0, 5,10.00,20.00,SummerDesignDay
8,14.121586553330208
10,1802988.836190988
321,12000.0
2,1, 7,21, 0, 5,20.00,30.00,SummerDesignDay
8,14.108677812040068
10,1802988.836190988
321,12000.0
2,1, 7,21, 0, 5,30.00,40.00,SummerDesignDay
8,14.09576919829491
10,1802988.836190988
321,12000.0
2,1, 7,21, 0, 5,40.00,50.00,SummerDesignDay
8,14.082848749312394
10,1802988.836190988
321,12000.0
2,1, 7,21, 0, 5,50.00,60.00,SummerDesignDay
8,14.06992842447945
10,1802988.836190988
321,12000.0
2,1, 7,21, 0, 5, 0.00,60.00,SummerDesignDay
555,24.12856676279073
595,24.679133698880436
635,24.7293584614939
675,25.682031187538546
715,24.524741409773794
755,26.262669343170975
2,1, 7,21, 0, 6, 0.00,10.00,SummerDesignDay
8,14.082848749312394
10,1808416.2194226664
321,467708.47018078315
2,1, 7,21, 0, 6,10.00,20.00,SummerDesignDay
8,14.09576919829491
10,1809667.5299191867
321,129459.59902331104
2,1, 7,21, 0, 6,20.00,30.00,SummerDesignDay
8,14.108677812040068
10,1811272.9750523836
321,12000.0
2,1, 7,21, 0, 6,30.00,40.00,SummerDesignDay
8,14.121586553330208
10,1812865.2470044653
321,12000.0
2,1, 7,21, 0, 6,40.00,50.00,SummerDesignDay
8,14.134483503136803
10,1813987.093470113
321,12000.0
2,1, 7,21, 0, 6,50.00,60.00,SummerDesignDay
8,14.14737449004363
10,1814774.1435483224
321,12000.0
2,1, 7,21, 0, 6, 0.00,60.00,SummerDesignDay
555,24.386225458251688
595,24.64146211990456
635,24.718339516405739
675,26.51676594435725
715,24.72427105068141
755,26.212576033413215
2,1, 7,21, 0, 7, 0.00,10.00,SummerDesignDay
8,14.192458699541419
10,2919056.3460845288
321,111843.42834061945
2,1, 7,21, 0, 7,10.00,20.00,SummerDesignDay
8,14.237465289259147
10,2704667.0599046095
321,490025.44356953297
2,1, 7,21, 0, 7,20.00,30.00,SummerDesignDay
8,14.282400578681767
10,2639459.3239127176
321,12000.0
2,1, 7,21, 0, 7,30.00,40.00,SummerDesignDay
8,14.327269868157244
10,2541543.7136193618
321,12000.0
2,1, 7,21, 0, 7,40.00,50.00,SummerDesignDay
8,14.37206256705002
10,2526806.851385732
321,12000.0
2,1, 7,21, 0, 7,50.00,60.00,SummerDesignDay
8,14.41678412858694
10,2528700.6884532535
321,12000.0
2,1, 7,21, 0, 7, 0.00,60.00,SummerDesignDay
555,24.91146242915546
595,24.01002171989616
635,24.00261463630176
675,24.135319141085906
715,24.014347441496246
755,24.041347685344666
2,1, 7,21, 0, 8, 0.00,10.00,SummerDesignDay
8,14.52510778410502
10,3543366.0749782028
321,578886.9975502854
2,1, 7,21, 0, 8,10.00,20.00,SummerDesignDay
8,14.633010753827032
10,3574718.514812008
321,12000.0
2,1, 7,21, 0, 8,20.00,30.00,SummerDesignDay
8,14.740500381053245
10,3597131.2196555205
321,12000.0
2,1, 7,21, 0, 8,30.00,40.00,SummerDesignDay
8,14.847579818177666
10,3615771.719425169
321,181257.86292968968
2,1, 7,21, 0, 8,40.00,50.00,SummerDesignDay
8,14.954251228863502
10,3633659.8084963636
321,441504.1813295681
2,1, 7,21, 0, 8,50.00,60.00,SummerDesignDay
8,15.06052241672491
10,3651582.9133210426
321,12000.0
2,1, 7,21, 0, 8, 0.00,60.00,SummerDesignDay
555,25.686417229788817
595,23.999900733421183
635,23.999922657760967
675,23.99948909254549
715,23.999896903756054
755,23.99996750318836
2,1, 7,21, 0, 9, 0.00,10.00,SummerDesignDay
8,15.17881093143959
10,7524183.42445321
321,842368.0738394873
2,1, 7,21, 0, 9,10.00,20.00,SummerDesignDay
8,15.296604763006956
10,7610064.580623709
321,891747.9724220004
2,1, 7,21, 0, 9,20.00,30.00,SummerDesignDay
8,15.413896017516949
10,7652651.682404187
321,891973.8930161517
2,1, 7,21, 0, 9,30.00,40.00,SummerDesignDay
8,15.530698941746774
10,7691815.584708267
321,892182.9931214388
2,1, 7,21, 0, 9,40.00,50.00,SummerDesignDay
8,15.647011238756806
10,7726802.09332557
321,854134.9330869238
2,1, 7,21, 0, 9,50.00,60.00,SummerDesignDay
8,15.76283100018377
10,7758661.352450991
321,762750.233110306
2,1, 7,21, 0, 9, 0.00,60.00,SummerDesignDay
555,26.594934219697348
595,23.999249913511354
635,23.999426330062574
675,23.999229976221114
715,23.99928616211356
755,23.999704651551516
2,1, 7,21, 0,10, 0.00,10.00,SummerDesignDay
8,15.866050592731839
10,8500150.14796373
321,762095.1909915784
2,1, 7,21, 0,10,10.00,20.00,SummerDesignDay
8,15.968890456818999
10,8538652.987744879
321,761374.4317862267
2,1, 7,21, 0,10,20.00,30.00,SummerDesignDay
8,16.071341711565816
10,8568326.532239093
321,760635.1470837044
2,1, 7,21, 0,10,30.00,40.00,SummerDesignDay
8,16.17341255543748
10,8592252.096864464
321,759879.1545042592
2,1, 7,21, 0,10,40.00,50.00,SummerDesignDay
8,16.27510482862286
10,8610023.181422994
321,759105.8841092007
2,1, 7,21, 0,10,50.00,60.00,SummerDesignDay
8,16.376426408509034
10,8624556.374622107
321,884228.9421471383
2,1, 7,21, 0,10, 0.00,60.00,SummerDesignDay
555,27.500331623502978
595,23.998635357770725
635,23.998868525797549
675,23.99873752936404
715,23.998710552691269
755,23.999446223288137
2,1, 7,21, 0,11, 0.00,10.00,SummerDesignDay
8,16.465508723862
10,8633244.867961679
321,1776986.4141779193
2,1, 7,21, 0,11,10.00,20.00,SummerDesignDay
8,16.55430721068082
10,8661456.929190752
321,1245769.70717753
2,1, 7,21, 0,11,20.00,30.00,SummerDesignDay
8,16.642816905754793
10,8669996.238865363
321,1335978.3696293485
2,1, 7,21, 0,11,30.00,40.00,SummerDesignDay
8,16.731040566742377
10,8683218.762608452
321,1763840.5697032836
2,1, 7,21, 0,11,40.00,50.00,SummerDesignDay
8,16.818978528683528
10,8698743.902991932
321,1245524.915996049
2,1, 7,21, 0,11,50.00,60.00,SummerDesignDay
8,16.906632814677363
10,8718188.179164984
321,1637985.2252067743
2,1, 7,21, 0,11, 0.00,60.00,SummerDesignDay
555,28.27014015941019
595,23.998300183849567
635,23.998328494689287
675,23.998846792804927
715,23.998403947545524
755,23.999278261287
2,1, 7,21, 0,12, 0.00,10.00,SummerDesignDay
8,16.96490734112248
10,8731889.129827669
321,1473910.2103181107
2,1, 7,21, 0,12,10.00,20.00,SummerDesignDay
8,17.02306163681706
10,8744446.673775707
321,1245273.8737058014
2,1, 7,21, 0,12,20.00,30.00,SummerDesignDay
8,17.081091264670655
10,8759223.960467074
321,1840780.0225992939
2,1, 7,21, 0,12,30.00,40.00,SummerDesignDay
8,17.138996936072375
10,8773531.486813644
321,1245836.831556747
2,1, 7,21, 0,12,40.00,50.00,SummerDesignDay
8,17.19677903247944
10,8794052.27926528
321,1244962.448933633
2,1, 7,21, 0,12,50.00,60.00,SummerDesignDay
8,17.254437857313869
10,8814706.684311215
321,1840780.0225992939
2,1, 7,21, 0,12, 0.00,60.00,SummerDesignDay
555,28.855433432823955
595,23.997985971979348
635,23.99915929762119
675,23.998915538861554
715,23.99812360841842
755,23.999148161187219
2,1, 7,21, 0,13, 0.00,10.00,SummerDesignDay
8,17.300473352302974
10,8776441.05941633
321,1245636.9257880923
2,1, 7,21, 0,13,10.00,20.00,SummerDesignDay
8,17.346435771613007
10,8787608.081091062
321,1477227.7671810736
2,1, 7,21, 0,13,20.00,30.00,SummerDesignDay
8,17.39231462602826
10,8801269.000552882
321,1634506.1761112062
2,1, 7,21, 0,13,30.00,40.00,SummerDesignDay
8,17.438120741249045
10,8809815.809700633
321,1245416.5285128155
2,1, 7,21, 0,13,40.00,50.00,SummerDesignDay
8,17.48384898311392
10,8819473.884436468
321,1767608.8697188849
2,1, 7,21, 0,13,50.00,60.00,SummerDesignDay
8,17.5294944744256
10,8829390.729412867
321,1332473.2066146273
2,1, 7,21, 0,13, 0.00,60.00,SummerDesignDay
555,29.241403581130716
595,23.998148730060547
635,24.007559373264596
675,23.99902451105152
715,23.998275267095126
755,23.99924453685425
2,1, 7,21, 0,14, 0.00,10.00,SummerDesignDay
8,17.55798510290616
10,8836078.325236159
321,1245137.4065867493
2,1, 7,21, 0,14,10.00,20.00,SummerDesignDay
8,17.58644628762676
10,8843488.904258917
321,1840780.0225992939
2,1, 7,21, 0,14,20.00,30.00,SummerDesignDay
8,17.614877255826824
10,8853736.131396689
321,1245745.2547009476
2,1, 7,21, 0,14,30.00,40.00,SummerDesignDay
8,17.64327765125093
10,8864862.07520065
321,1312438.6626023276
2,1, 7,21, 0,14,40.00,50.00,SummerDesignDay
8,17.671648854260988
10,8879110.14808107
321,1784248.11318785
2,1, 7,21, 0,14,50.00,60.00,SummerDesignDay
8,17.699989806758667
10,8897873.753181974
321,1245541.7082561095
2,1, 7,21, 0,14, 0.00,60.00,SummerDesignDay
555,29.439917688660498
595,23.998279539349395
635,24.009238143466417
675,23.999073270723828
715,23.998365684375974
755,23.999250992514648
2,1, 7,21, 0,15, 0.00,10.00,SummerDesignDay
8,17.699989806758667
10,8966137.46455524
321,1615548.5225762504
2,1, 7,21, 0,15,10.00,20.00,SummerDesignDay
8,17.699989806758667
10,8995173.975512654
321,1497208.6095189194
2,1, 7,21, 0,15,20.00,30.00,SummerDesignDay
8,17.699989806758667
10,9024222.797173314
321,1245295.2904814834
2,1, 7,21, 0,15,30.00,40.00,SummerDesignDay
8,17.699989806758667
10,9060788.448861476
321,1840780.0225992939
2,1, 7,21, 0,15,40.00,50.00,SummerDesignDay
8,17.699989806758667
10,9098859.642891368
321,1245851.9871499525
2,1, 7,21, 0,15,50.00,60.00,SummerDesignDay
8,17.699989806758667
10,9132969.899602233
321,1244987.917435053
2,1, 7,21, 0,15, 0.00,60.00,SummerDesignDay
555,29.441362342150219
595,24.03108707947776
635,23.998205994805315
675,23.998890649139768
715,24.003581767247128
755,23.99867313085895
2,1, 7,21, 0,16, 0.00,10.00,SummerDesignDay
8,17.665977997442679
10,9156524.838599744
321,1840780.0225992939
2,1, 7,21, 0,16,10.00,20.00,SummerDesignDay
8,17.631918087786315
10,9173086.871390453
321,1245652.497368588
2,1, 7,21, 0,16,20.00,30.00,SummerDesignDay
8,17.597820333420616
10,9180457.08688872
321,1453775.210012842
2,1, 7,21, 0,16,30.00,40.00,SummerDesignDay
8,17.563679163905577
10,9182145.057704237
321,1656752.9097659244
2,1, 7,21, 0,16,40.00,50.00,SummerDesignDay
8,17.5294944744256
10,9180197.490070962
321,1245435.4931604993
2,1, 7,21, 0,16,50.00,60.00,SummerDesignDay
8,17.495266319634998
10,9176703.990961735
321,1746729.783011288
2,1, 7,21, 0,16, 0.00,60.00,SummerDesignDay
555,29.230194769087075
595,24.138080069535119
635,23.998101482570946
675,23.99878509318493
715,24.083146123711076
755,23.99804829729287
2,1, 7,21, 0,17, 0.00,10.00,SummerDesignDay
8,17.449557296959818
10,9170602.746187108
321,1226584.1941361174
2,1, 7,21, 0,17,10.00,20.00,SummerDesignDay
8,17.40377589954532
10,9159875.193374
321,1069181.4591464475
2,1, 7,21, 0,17,20.00,30.00,SummerDesignDay
8,17.35791148637736
10,9151008.30949175
321,1068792.0851785963
2,1, 7,21, 0,17,30.00,40.00,SummerDesignDay
8,17.311974118675808
10,9141806.165248543
321,1068362.0337656504
2,1, 7,21, 0,17,40.00,50.00,SummerDesignDay
8,17.26595275911724
10,9132652.002185433
321,1067924.8258655377
2,1, 7,21, 0,17,50.00,60.00,SummerDesignDay
8,17.21985864371074
10,9123646.78409779
321,1067480.3036928338
2,1, 7,21, 0,17, 0.00,60.00,SummerDesignDay
555,28.81551481262117
595,24.179098046261648
635,23.998109075227466
675,23.99883121787376
715,24.122237042981529
755,23.99806908588677
2,1, 7,21, 0,18, 0.00,10.00,SummerDesignDay
8,17.162125648791073
10,8719192.573562075
321,850994.3783929498
2,1, 7,21, 0,18,10.00,20.00,SummerDesignDay
8,17.104269902032834
10,8690099.87250471
321,890973.9985757113
2,1, 7,21, 0,18,20.00,30.00,SummerDesignDay
8,17.046289244389596
10,8663899.370521408
321,891143.4291348944
2,1, 7,21, 0,18,30.00,40.00,SummerDesignDay
8,16.988185042855699
10,8639365.777556967
321,891348.3236708107
2,1, 7,21, 0,18,40.00,50.00,SummerDesignDay
8,16.929955683840477
10,8619009.605439676
321,891555.7865671715
2,1, 7,21, 0,18,50.00,60.00,SummerDesignDay
8,16.871601025563547
10,8596129.298677568
321,891763.7320642775
2,1, 7,21, 0,18, 0.00,60.00,SummerDesignDay
555,28.222751159292657
595,24.025477900091756
635,23.99842846206892
675,23.99908012187478
715,24.007926194265879
755,23.998486229033586
2,1, 7,21, 0,19, 0.00,10.00,SummerDesignDay
8,16.783845019079924
10,6264200.127557051
321,713064.1194345347
2,1, 7,21, 0,19,10.00,20.00,SummerDesignDay
8,16.695786295207627
10,6193934.022504661
321,12646.024425952528
2,1, 7,21, 0,19,20.00,30.00,SummerDesignDay
8,16.607448466661379
10,6147602.161054418
321,693422.3598052228
2,1, 7,21, 0,19,30.00,40.00,SummerDesignDay
8,16.518823167926099
10,6101527.240076661
321,695746.3088038667
2,1, 7,21, 0,19,40.00,50.00,SummerDesignDay
8,16.429909788083927
10,6057671.97693514
321,550262.7236377362
2,1, 7,21, 0,19,50.00,60.00,SummerDesignDay
8,16.340705768209366
10,6016706.663917105
321,199244.44335865385
2,1, 7,21, 0,19, 0.00,60.00,SummerDesignDay
555,27.458229181035553
595,23.998881037757145
635,23.999197120561989
675,23.999536500702836
715,23.998932509903189
755,23.99913451699112
2,1, 7,21, 0,20, 0.00,10.00,SummerDesignDay
8,16.27510482862286
10,4218108.481280893
321,633797.8647868624
2,1, 7,21, 0,20,10.00,20.00,SummerDesignDay
8,16.209346899979975
10,4148645.427758925
321,175974.49952569454
2,1, 7,21, 0,20,20.00,30.00,SummerDesignDay
8,16.14343031062354
10,4088256.733331743
321,500247.1230909635
2,1, 7,21, 0,20,30.00,40.00,SummerDesignDay
8,16.07735534694583
10,4024877.462267708
321,504264.48644784846
2,1, 7,21, 0,20,40.00,50.00,SummerDesignDay
8,16.011121524499058
10,3956282.248257716
321,175083.73848090316
2,1, 7,21, 0,20,50.00,60.00,SummerDesignDay
8,15.944726939802525
10,3887262.354259847
321,631599.1107946282
2,1, 7,21, 0,20, 0.00,60.00,SummerDesignDay
555,26.606704339611935
595,23.99954196639375
635,23.999683713153514
675,23.99981014132616
715,23.99952392073476
755,23.99970101399812
2,1, 7,21, 0,21, 0.00,10.00,SummerDesignDay
8,15.890283167506159
10,3818479.3514319139
321,12000.0
2,1, 7,21, 0,21,10.00,20.00,SummerDesignDay
8,15.835731425804106
10,3769075.051694245
321,630404.315776015
2,1, 7,21, 0,21,20.00,30.00,SummerDesignDay
8,15.781076838291185
10,3729404.7579125065
321,12000.0
2,1, 7,21, 0,21,30.00,40.00,SummerDesignDay
8,15.726308583775304
10,3695247.4556219608
321,629170.3006317563
2,1, 7,21, 0,21,40.00,50.00,SummerDesignDay
8,15.671431213250513
10,3665233.5851303075
321,12000.0
2,1, 7,21, 0,21,50.00,60.00,SummerDesignDay
8,15.61645040678747
10,3638159.4691560587
321,627846.645380921
2,1, 7,21, 0,21, 0.00,60.00,SummerDesignDay
555,25.849560816156214
595,23.999752627229765
635,23.99983639707006
675,23.999892234846326
715,23.999806082179018
755,23.999896718348265
2,1, 7,21, 0,22, 0.00,10.00,SummerDesignDay
8,15.561354608572382
10,1975192.2750991518
321,235099.56923468464
2,1, 7,21, 0,22,10.00,20.00,SummerDesignDay
8,15.50614866374472
10,1981401.293746431
321,500457.679969889
2,1, 7,21, 0,22,20.00,30.00,SummerDesignDay
8,15.450838288133705
10,1931663.2303961896
321,590118.9081873926
2,1, 7,21, 0,22,30.00,40.00,SummerDesignDay
8,15.395411716843887
10,1986566.289407246
321,109098.3014017423
2,1, 7,21, 0,22,40.00,50.00,SummerDesignDay
8,15.339874488503668
10,1931663.2303961896
321,631355.4956646036
2,1, 7,21, 0,22,50.00,60.00,SummerDesignDay
8,15.284225663499033
10,1973235.685459563
321,12000.0
2,1, 7,21, 0,22, 0.00,60.00,SummerDesignDay
555,25.482057893693214
595,25.116646324224676
635,25.297684373944038
675,25.674040233139693
715,25.153057341420735
755,26.100356938773019
2,1, 7,21, 0,23, 0.00,10.00,SummerDesignDay
8,15.240869388325028
10,1956830.8918373113
321,12000.0
2,1, 7,21, 0,23,10.00,20.00,SummerDesignDay
8,15.197445349417654
10,1937530.8055016343
321,554280.5997463091
2,1, 7,21, 0,23,20.00,30.00,SummerDesignDay
8,15.153947722661958
10,1931663.2303961896
321,12000.0
2,1, 7,21, 0,23,30.00,40.00,SummerDesignDay
8,15.110387923065014
10,1931663.2303961896
321,12000.0
2,1, 7,21, 0,23,40.00,50.00,SummerDesignDay
8,15.066759894808272
10,1931663.2303961896
321,12000.0
2,1, 7,21, 0,23,50.00,60.00,SummerDesignDay
8,15.023063522448683
10,1931663.2303961896
321,12000.0
2,1, 7,21, 0,23, 0.00,60.00,SummerDesignDay
555,25.200103976476119
595,25.69651091734264
635,25.871284202528626
675,26.51414560611228
715,25.64257055488612
755,27.12606522971764
2,1, 7,21, 0,24, 0.00,10.00,SummerDesignDay
8,14.979292987000976
10,1802988.836190988
321,12000.0
2,1, 7,21, 0,24,10.00,20.00,SummerDesignDay
8,14.935459206425353
10,1802988.836190988
321,556940.2255315086
2,1, 7,21, 0,24,20.00,30.00,SummerDesignDay
8,14.891557025823348
10,1802988.836190988
321,12000.0
2,1, 7,21, 0,24,30.00,40.00,SummerDesignDay
8,14.847579818177666
10,1802988.836190988
321,12000.0
2,1, 7,21, 0,24,40.00,50.00,SummerDesignDay
8,14.803539198805562
10,1802988.836190988
321,12000.0
2,1, 7,21, 0,24,50.00,60.00,SummerDesignDay
8,14.759429393816522
10,1802988.836190988
321,12000.0
2,1, 7,21, 0,24, 0.00,60.00,SummerDesignDay
555,24.983729479425177
595,25.5782116785519
635,25.744365156408418
675,26.529015252246397
715,25.475061531983969
755,27.224969930918247
3,1, 7,21, 0,SummerDesignDay
556,41.66634876926555,34.993315295858938,15,10,48.005535054045079, 5,40
596,47.75962769340057,43.1245513728364,22,60,51.608026870798457,16,40
636,46.29333685791329,42.05215381015909,22,29,48.90567987549006,17,10
676,43.99707851710452,40.23530098484052,23,30,47.789361088997839,17,10
716,47.03248172910032,42.44158263872413,22,19,50.08729192623335,12,60
756,43.42090247925551,37.73125823989588,22,60,48.021517123158499,12,60
4,1, 7
7,21.283875,16.6,21, 5,60,26.7,21,14,60
1,VICTORIA INTL AP ANN HTG 99.6% CONDNS DB,  48.65,-123.43,  -8.00,  19.50
2,1,12,21, 0, 1, 0.00,10.00,WinterDesignDay
8,-4.000002448902599
10,1802988.836190988
321,3800946.103012379
2,1,12,21, 0, 1,10.00,20.00,WinterDesignDay
8,-4.000002448902599
10,1802988.836190988
321,3845655.256147319
2,1,12,21, 0, 1,20.00,30.00,WinterDesignDay
8,-4.000002448902599
10,1802988.836190988
321,3890392.841231627
2,1,12,21, 0, 1,30.00,40.00,WinterDesignDay
8,-4.000002448902599
10,1802988.836190988
321,3934217.3544319106
2,1,12,21, 0, 1,40.00,50.00,WinterDesignDay
8,-4.000002448902599
10,1802988.836190988
321,3977085.9810687319
2,1,12,21, 0, 1,50.00,60.00,WinterDesignDay
8,-4.000002448902599
10,1802988.836190988
321,4565454.814026911
2,1,12,21, 0, 1, 0.00,60.00,WinterDesignDay
555,14.42470281848851
595,17.999977867131628
635,18.000057892421834
675,18.000050476489358
715,18.00005893342065
755,18.000051193245786
2,1,12,21, 0, 2, 0.00,10.00,WinterDesignDay
8,-4.000002448902599
10,1802988.836190988
321,4059252.5790608117
2,1,12,21, 0, 2,10.00,20.00,WinterDesignDay
8,-4.000002448902599
10,1802988.836190988
321,4099352.219361787
2,1,12,21, 0, 2,20.00,30.00,WinterDesignDay
8,-4.000002448902599
10,1802988.836190988
321,4139826.2557765759
2,1,12,21, 0, 2,30.00,40.00,WinterDesignDay
8,-4.000002448902599
10,1802988.836190988
321,4180224.420459886
2,1,12,21, 0, 2,40.00,50.00,WinterDesignDay
8,-4.000002448902599
10,1802988.836190988
321,4220306.474536252
2,1,12,21, 0, 2,50.00,60.00,WinterDesignDay
8,-4.000002448902599
10,1802988.836190988
321,4801646.235156022
2,1,12,21, 0, 2, 0.00,60.00,WinterDesignDay
555,14.240668196269495
595,17.999988548681278
635,18.000046427597029
675,18.00004022936088
715,18.000047151296415
755,18.000040783422148
2,1,12,21, 0, 3, 0.00,10.00,WinterDesignDay
8,-4.000002448902599
10,1802988.836190988
321,4298799.5791118419
2,1,12,21, 0, 3,10.00,20.00,WinterDesignDay
8,-4.000002448902599
10,1802988.836190988
321,4337467.285427771
2,1,12,21, 0, 3,20.00,30.00,WinterDesignDay
8,-4.000002448902599
10,1802988.836190988
321,4375836.095094502
2,1,12,21, 0, 3,30.00,40.00,WinterDesignDay
8,-4.000002448902599
10,1802988.836190988
321,4413634.566144964
2,1,12,21, 0, 3,40.00,50.00,WinterDesignDay
8,-4.000002448902599
10,1802988.836190988
321,4994443.356771475
2,1,12,21, 0, 3,50.00,60.00,WinterDesignDay
8,-4.000002448902599
10,1802988.836190988
321,4494604.517275314
2,1,12,21, 0, 3, 0.00,60.00,WinterDesignDay
555,14.065362141874135
595,17.99999449464011
635,18.000038561460163
675,18.00003311548765
715,18.000039512095325
755,18.00003348818441
2,1,12,21, 0, 4, 0.00,10.00,WinterDesignDay
8,-4.000002448902599
10,1802988.836190988
321,4521395.54300434
2,1,12,21, 0, 4,10.00,20.00,WinterDesignDay
8,-4.000002448902599
10,1802988.836190988
321,4558579.950537053
2,1,12,21, 0, 4,20.00,30.00,WinterDesignDay
8,-4.000002448902599
10,1802988.836190988
321,4596208.284006864
2,1,12,21, 0, 4,30.00,40.00,WinterDesignDay
8,-4.000002448902599
10,1802988.836190988
321,4633944.136176982
2,1,12,21, 0, 4,40.00,50.00,WinterDesignDay
8,-4.000002448902599
10,1802988.836190988
321,5218307.992325938
2,1,12,21, 0, 4,50.00,60.00,WinterDesignDay
8,-4.000002448902599
10,1802988.836190988
321,4709318.099030783
2,1,12,21, 0, 4, 0.00,60.00,WinterDesignDay
555,13.900473331374905
595,17.99999774292077
635,18.000033100552547
675,18.000027903977764
715,18.000034357439796
755,18.00002806704779
2,1,12,21, 0, 5, 0.00,10.00,WinterDesignDay
8,-4.000002448902599
10,1802988.836190988
321,4746635.594105004
2,1,12,21, 0, 5,10.00,20.00,WinterDesignDay
8,-4.000002448902599
10,1802988.836190988
321,4784292.781825818
2,1,12,21, 0, 5,20.00,30.00,WinterDesignDay
8,-4.000002448902599
10,1802988.836190988
321,4821876.230958015
2,1,12,21, 0, 5,30.00,40.00,WinterDesignDay
8,-4.000002448902599
10,1802988.836190988
321,4859314.344134713
2,1,12,21, 0, 5,40.00,50.00,WinterDesignDay
8,-4.000002448902599
10,1802988.836190988
321,5438257.838492648
2,1,12,21, 0, 5,50.00,60.00,WinterDesignDay
8,-4.000002448902599
10,1802988.836190988
321,4933120.861856479
2,1,12,21, 0, 5, 0.00,60.00,WinterDesignDay
555,13.746773724537326
595,18.000000627166096
635,18.00002940062986
675,18.00002409002077
715,18.000031003854749
755,18.00002402114462
2,1,12,21, 0, 6, 0.00,10.00,WinterDesignDay
8,-4.000002448902599
10,1802988.836190988
321,4969787.737697113
2,1,12,21, 0, 6,10.00,20.00,WinterDesignDay
8,-4.000002448902599
10,1802988.836190988
321,5006437.052379342
2,1,12,21, 0, 6,20.00,30.00,WinterDesignDay
8,-4.000002448902599
10,1802988.836190988
321,5042867.633307248
2,1,12,21, 0, 6,30.00,40.00,WinterDesignDay
8,-4.000002448902599
10,1802988.836190988
321,5618866.251118356
2,1,12,21, 0, 6,40.00,50.00,WinterDesignDay
8,-4.000002448902599
10,1802988.836190988
321,5128551.008755901
2,1,12,21, 0, 6,50.00,60.00,WinterDesignDay
8,-4.000002448902599
10,1802988.836190988
321,5149912.367188183
2,1,12,21, 0, 6, 0.00,60.00,WinterDesignDay
555,13.602492642245963
595,18.00000282331812
635,18.00002699103462
675,18.00002132792309
715,18.00002896109123
755,18.000021015975837
2,1,12,21, 0, 7, 0.00,10.00,WinterDesignDay
8,-4.000002448902599
10,1855603.0009739116
321,14092915.423512655
2,1,12,21, 0, 7,10.00,20.00,WinterDesignDay
8,-4.000002448902599
10,1802988.836190988
321,5751754.885570454
2,1,12,21, 0, 7,20.00,30.00,WinterDesignDay
8,-4.000002448902599
10,1802988.836190988
321,11310146.278409062
2,1,12,21, 0, 7,30.00,40.00,WinterDesignDay
8,-4.000002448902599
10,1802988.836190988
321,10541433.838017382
2,1,12,21, 0, 7,40.00,50.00,WinterDesignDay
8,-4.000002448902599
10,1802988.836190988
321,9755920.095994939
2,1,12,21, 0, 7,50.00,60.00,WinterDesignDay
8,-4.000002448902599
10,1802988.836190988
321,9639690.292136195
2,1,12,21, 0, 7, 0.00,60.00,WinterDesignDay
555,13.476565740765766
595,19.97428778206
635,19.975679112549938
675,19.998719616474465
715,19.971334850326597
755,20.012303227229869
2,1,12,21, 0, 8, 0.00,10.00,WinterDesignDay
8,-4.000002448902599
10,2704607.4922581275
321,18169284.14357815
2,1,12,21, 0, 8,10.00,20.00,WinterDesignDay
8,-4.000002448902599
10,2676465.231761346
321,11339604.052904955
2,1,12,21, 0, 8,20.00,30.00,WinterDesignDay
8,-4.000002448902599
10,2676465.231761346
321,15319270.41301257
2,1,12,21, 0, 8,30.00,40.00,WinterDesignDay
8,-4.000002448902599
10,2676465.231761346
321,14112698.858799799
2,1,12,21, 0, 8,40.00,50.00,WinterDesignDay
8,-4.000002448902599
10,2676465.231761346
321,14245690.429986492
2,1,12,21, 0, 8,50.00,60.00,WinterDesignDay
8,-4.000002448902599
10,2676465.231761346
321,13432170.92537146
2,1,12,21, 0, 8, 0.00,60.00,WinterDesignDay
555,13.418886967122177
595,21.956939684655926
635,21.97091243958729
675,21.98580631997613
715,21.96666449681
755,21.995335879728697
2,1,12,21, 0, 9, 0.00,10.00,WinterDesignDay
8,-4.000002448902599
10,6000277.623419591
321,11570258.865314352
2,1,12,21, 0, 9,10.00,20.00,WinterDesignDay
8,-4.000002448902599
10,6000277.623419591
321,11129507.775487118
2,1,12,21, 0, 9,20.00,30.00,WinterDesignDay
8,-4.000002448902599
10,6000277.623419591
321,10865794.265285673
2,1,12,21, 0, 9,30.00,40.00,WinterDesignDay
8,-4.000002448902599
10,6000277.623419591
321,10610825.7546701
2,1,12,21, 0, 9,40.00,50.00,WinterDesignDay
8,-4.000002448902599
10,6000277.623419591
321,10364794.165313662
2,1,12,21, 0, 9,50.00,60.00,WinterDesignDay
8,-4.000002448902599
10,6000277.623419591
321,10210543.229334303
2,1,12,21, 0, 9, 0.00,60.00,WinterDesignDay
555,13.487139290931444
595,22.000158662082485
635,22.000267561087797
675,22.000176391802638
715,22.00030282898282
755,22.00015227879271
2,1,12,21, 0,10, 0.00,10.00,WinterDesignDay
8,-4.000002448902599
10,6598549.127234906
321,9510345.94982991
2,1,12,21, 0,10,10.00,20.00,WinterDesignDay
8,-4.000002448902599
10,6598549.127234906
321,9348195.535969804