Program Version,EnergyPlus, Version 8.9.0-eba93e8e1b, YMD=2018.10.31 19:12
1,5,Environment Title[],Latitude[deg],Longitude[deg],Time Zone[],Elevation[m]
2,8,Day of Simulation[],Month[],Day of Month[],DST Indicator[1=yes 0=no],Hour[],StartMinute[],EndMinute[],DayType
3,5,Cumulative Day of Simulation[],Month[],Day of Month[],DST Indicator[1=yes 0=no],DayType  ! When Daily Report Variables Requested
4,2,Cumulative Days of Simulation[],Month[]  ! When Monthly Report Variables Requested
5,1,Cumulative Days of Simulation[] ! When Run Period Report Variables Requested
6,1,Calendar Year of Simulation[] ! When Annual Report Variables Requested
7,9,Environment,Site Outdoor Air Drybulb Temperature [C] !Monthly [Value,Min,Day,Hour,Minute,Max,Day,Hour,Minute]
8,1,Environment,Site Outdoor Air Wetbulb Temperature [C] !TimeStep
555,1,SP-ATTIC SYS-0 FLR-2 SCH-- UNDEFINED - HPLCMT-CORE ZN,Zone Air Temperature [C] !Hourly
556,7,SP-ATTIC SYS-0 FLR-2 SCH-- UNDEFINED - HPLCMT-CORE ZN,Zone Air Relative Humidity [%] !Daily [Value,Min,Hour,Minute,Max,Hour,Minute]
595,1,SP-CORE_ZN SYS-3 FLR-1 SCH-A HPLCMT-CORE ZN,Zone Air Temperature [C] !Hourly
596,7,SP-CORE_ZN SYS-3 FLR-1 SCH-A HPLCMT-CORE ZN,Zone Air Relative Humidity [%] !Daily [Value,Min,Hour,Minute,Max,Hour,Minute]
635,1,SP-PERIMETER_ZN_1 SYS-3 FLR-1 SCH-A HPLCMT-SOUTH ZN,Zone Air Temperature [C] !Hourly
636,7,SP-PERIMETER_ZN_1 SYS-3 FLR-1 SCH-A HPLCMT-SOUTH ZN,Zone Air Relative Humidity [%] !Daily [Value,Min,Hour,Minute,Max,Hour,Minute]
675,1,SP-PERIMETER_ZN_2 SYS-3 FLR-1 SCH-A HPLCMT-EAST ZN,Zone Air Temperature [C] !Hourly
676,7,SP-PERIMETER_ZN_2 SYS-3 FLR-1 SCH-A HPLCMT-EAST ZN,Zone Air Relative Humidity [%] !Daily [Value,Min,Hour,Minute,Max,Hour,Minute]
715,1,SP-PERIMETER_ZN_3 SYS-3 FLR-1 SCH-A HPLCMT-NORTH ZN,Zone Air Temperature [C] !Hourly
716,7,SP-PERIMETER_ZN_3 SYS-3 FLR-1 SCH-A HPLCMT-NORTH ZN,Zone Air Relative Humidity [%] !Daily [Value,Min,Hour,Minute,Max,Hour,Minute]
755,1,SP-PERIMETER_ZN_4 SYS-3 FLR-1 SCH-A HPLCMT-WEST ZN,Zone Air Temperature [C] !Hourly
756,7,SP-PERIMETER_ZN_4 SYS-3 FLR-1 SCH-A HPLCMT-WEST ZN,Zone Air Relative Humidity [%] !Daily [Value,Min,Hour,Minute,Max,Hour,Minute]
10,1,Electricity:Facility [J] !TimeStep
321,1,Gas:Facility [J] !TimeStep
End of Data Dictionary
1,WINDSOR INTL AP ANN CLG .4% CONDNS DB=>MWB,  42.28, -82.96,  -5.00, 189.60
2,1, 7,21, 0, 1, 0.00,10.00,SummerDesignDay
8,20.97335962749645
10,1876981.8004704056
321,12000.0
2,1, 7,21, 0, 1,10.00,20.00,SummerDesignDay
8,20.946623966558698
10,1876981.8004704056
321,12000.0
2,1, 7,21, 0, 1,20.00,30.00,SummerDesignDay
8,20.919864648406099
10,1876981.8004704056
321,12000.0
2,1, 7,21, 0, 1,30.00,40.00,SummerDesignDay
8,20.893072780972653
10,1876981.8004704056
321,12000.0
2,1, 7,21, 0, 1,40.00,50.00,SummerDesignDay
8,20.866252591795904
10,1876981.8004704056
321,12000.0
2,1, 7,21, 0, 1,50.00,60.00,SummerDesignDay
8,20.83940529755027
10,1876981.8004704056
321,12000.0
2,1, 7,21, 0, 1, 0.00,60.00,SummerDesignDay
555,26.236918972051798
595,27.020289855785266
635,27.222870488000966
675,27.99407979187231
715,27.190300801983807
755,28.478101353434825
2,1, 7,21, 0, 2, 0.00,10.00,SummerDesignDay
8,20.821490830520078
10,1876981.8004704056
321,554980.3960022411
2,1, 7,21, 0, 2,10.00,20.00,SummerDesignDay
8,20.80356907950476
10,1876981.8004704056
321,12000.0
2,1, 7,21, 0, 2,20.00,30.00,SummerDesignDay
8,20.785630459928176
10,1876981.8004704056
321,12000.0
2,1, 7,21, 0, 2,30.00,40.00,SummerDesignDay
8,20.767678988386437
10,1876981.8004704056
321,12000.0
2,1, 7,21, 0, 2,40.00,50.00,SummerDesignDay
8,20.749714519003836
10,1876981.8004704056
321,12000.0
2,1, 7,21, 0, 2,50.00,60.00,SummerDesignDay
8,20.731737894032638
10,1876981.8004704056
321,12000.0
2,1, 7,21, 0, 2, 0.00,60.00,SummerDesignDay
555,26.11786393282434
595,26.933413573016236
635,27.110219586528076
675,27.90537174728489
715,27.081478976288805
755,28.370654636864619
2,1, 7,21, 0, 3, 0.00,10.00,SummerDesignDay
8,20.71824752870708
10,1876981.8004704056
321,12000.0
2,1, 7,21, 0, 3,10.00,20.00,SummerDesignDay
8,20.704750126303375
10,1876981.8004704056
321,550351.6573909704
2,1, 7,21, 0, 3,20.00,30.00,SummerDesignDay
8,20.691245356087916
10,1876981.8004704056
321,12000.0
2,1, 7,21, 0, 3,30.00,40.00,SummerDesignDay
8,20.677737899804865
10,1876981.8004704056
321,12000.0
2,1, 7,21, 0, 3,40.00,50.00,SummerDesignDay
8,20.664218701470074
10,1876981.8004704056
321,12000.0
2,1, 7,21, 0, 3,50.00,60.00,SummerDesignDay
8,20.650692742521078
10,1876981.8004704056
321,12000.0
2,1, 7,21, 0, 3, 0.00,60.00,SummerDesignDay
555,26.016034160094678
595,26.848979500366196
635,27.00232970131796
675,27.81234643691995
715,26.976637036047746
755,28.257114840132773
2,1, 7,21, 0, 4, 0.00,10.00,SummerDesignDay
8,20.637159777940288
10,1876981.8004704056
321,12000.0
2,1, 7,21, 0, 4,10.00,20.00,SummerDesignDay
8,20.623619586556936
10,1876981.8004704056
321,546933.2936567178
2,1, 7,21, 0, 4,20.00,30.00,SummerDesignDay
8,20.610072215754984
10,1876981.8004704056
321,27264.62884557541
2,1, 7,21, 0, 4,30.00,40.00,SummerDesignDay
8,20.596517646806786
10,1876981.8004704056
321,12000.0
2,1, 7,21, 0, 4,40.00,50.00,SummerDesignDay
8,20.582956194307774
10,1876981.8004704056
321,12000.0
2,1, 7,21, 0, 4,50.00,60.00,SummerDesignDay
8,20.569387426741398
10,1876981.8004704056
321,12000.0
2,1, 7,21, 0, 4, 0.00,60.00,SummerDesignDay
555,25.920671692227598
595,26.765891379830039
635,26.897530837926383
675,27.718628313779978
715,26.87440778165715
755,28.143435901962083
2,1, 7,21, 0, 5, 0.00,10.00,SummerDesignDay
8,20.560347950095957
10,1876981.8004704056
321,12000.0
2,1, 7,21, 0, 5,10.00,20.00,SummerDesignDay
8,20.55129528466898
10,1876981.8004704056
321,12000.0
2,1, 7,21, 0, 5,20.00,30.00,SummerDesignDay
8,20.54223336682703
10,1876981.8004704056
321,554626.4186719009
2,1, 7,21, 0, 5,30.00,40.00,SummerDesignDay
8,20.533174555758774
10,1876981.8004704056
321,12000.0
2,1, 7,21, 0, 5,40.00,50.00,SummerDesignDay
8,20.524111871226514
10,1876981.8004704056
321,12000.0
2,1, 7,21, 0, 5,50.00,60.00,SummerDesignDay
8,20.515045991390708
10,1876981.8004704056
321,12000.0
2,1, 7,21, 0, 5, 0.00,60.00,SummerDesignDay
555,25.827394843680655
595,26.68395142865089
635,26.79543496734991
675,27.62549255816865
715,26.774618093074094
755,28.031493312217479
2,1, 7,21, 0, 6, 0.00,10.00,SummerDesignDay
8,20.524111871226514
10,1876981.8004704056
321,12000.0
2,1, 7,21, 0, 6,10.00,20.00,SummerDesignDay
8,20.533174555758774
10,1876981.8004704056
321,12000.0
2,1, 7,21, 0, 6,20.00,30.00,SummerDesignDay
8,20.54223336682703
10,1876981.8004704056
321,12000.0
2,1, 7,21, 0, 6,30.00,40.00,SummerDesignDay
8,20.55129528466898
10,1876981.8004704056
321,549509.9190904863
2,1, 7,21, 0, 6,40.00,50.00,SummerDesignDay
8,20.560347950095957
10,1876981.8004704056
321,12000.0
2,1, 7,21, 0, 6,50.00,60.00,SummerDesignDay
8,20.569387426741398
10,1887874.5204158074
321,12000.0
2,1, 7,21, 0, 6, 0.00,60.00,SummerDesignDay
555,25.823277396439555
595,26.63033954432026
635,26.74323357695287
675,27.75036913009511
715,26.764074425675579
755,27.962125997060768
2,1, 7,21, 0, 7, 0.00,10.00,SummerDesignDay
8,20.601036940725476
10,5164151.30866043
321,12000.0
2,1, 7,21, 0, 7,10.00,20.00,SummerDesignDay
8,20.6326468607383
10,4685983.362909654
321,12000.0
2,1, 7,21, 0, 7,20.00,30.00,SummerDesignDay
8,20.664218701470074
10,4213333.140603724
321,12000.0
2,1, 7,21, 0, 7,30.00,40.00,SummerDesignDay
8,20.69574734578554
10,3844899.016410361
321,557746.5006634997
2,1, 7,21, 0, 7,40.00,50.00,SummerDesignDay
8,20.727242037099676
10,3810933.789333817
321,12000.0
2,1, 7,21, 0, 7,50.00,60.00,SummerDesignDay
8,20.75869794330259
10,3711698.4358446679
321,12000.0
2,1, 7,21, 0, 7, 0.00,60.00,SummerDesignDay
555,26.15379801560641
595,24.24954615204105
635,24.188177127903999
675,24.256513269100539
715,24.22035073895273
755,24.186407415918123
2,1, 7,21, 0, 8, 0.00,10.00,SummerDesignDay
8,20.83492764259517
10,4718771.232273922
321,12000.0
2,1, 7,21, 0, 8,10.00,20.00,SummerDesignDay
8,20.9109370998051
10,4721183.611599313
321,12000.0
2,1, 7,21, 0, 8,20.00,30.00,SummerDesignDay
8,20.98671784925484
10,4721574.315255513
321,573210.7233050037
2,1, 7,21, 0, 8,30.00,40.00,SummerDesignDay
8,21.062275376793069
10,4729528.652608939
321,12000.0
2,1, 7,21, 0, 8,40.00,50.00,SummerDesignDay
8,21.137616312257319
10,4738940.777777732
321,12000.0
2,1, 7,21, 0, 8,50.00,60.00,SummerDesignDay
8,21.212731630626729
10,4748418.8650197819
321,498839.9829708708
2,1, 7,21, 0, 8, 0.00,60.00,SummerDesignDay
555,26.79483747278248
595,23.99935355390664
635,23.999339400078854
675,23.99859060667276
715,23.999287981264943
755,23.99976656731843
2,1, 7,21, 0, 9, 0.00,10.00,SummerDesignDay
8,21.296425092706909
10,8766575.838168148
321,589599.3725587663
2,1, 7,21, 0, 9,10.00,20.00,SummerDesignDay
8,21.379850586892247
10,8868253.92595819
321,680574.8165661137
2,1, 7,21, 0, 9,20.00,30.00,SummerDesignDay
8,21.463000242011085
10,8908022.245422986
321,678883.1616885059
2,1, 7,21, 0, 9,30.00,40.00,SummerDesignDay
8,21.54588037790266
10,8950686.93050519
321,758737.3724970548
2,1, 7,21, 0, 9,40.00,50.00,SummerDesignDay
8,21.628496559964245
10,8987562.291437837
321,847109.1743802646
2,1, 7,21, 0, 9,50.00,60.00,SummerDesignDay
8,21.710841836813754
10,9021196.563256396
321,847376.7481305393
2,1, 7,21, 0, 9, 0.00,60.00,SummerDesignDay
555,27.58435327499063
595,23.998371113366316
635,23.998450730584499
675,23.9984500086468
715,23.998454340491635
755,23.999383604413329
2,1, 7,21, 0,10, 0.00,10.00,SummerDesignDay
8,21.784293470592837
10,9793917.790907542
321,847676.5937794806
2,1, 7,21, 0,10,10.00,20.00,SummerDesignDay
8,21.85753875946139
10,9831451.586525068
321,847978.6558974362
2,1, 7,21, 0,10,20.00,30.00,SummerDesignDay
8,21.930569281126119
10,9860005.867877022
321,848281.4984355199
2,1, 7,21, 0,10,30.00,40.00,SummerDesignDay
8,22.00339025200843
10,9879900.879001117
321,848585.059435734
2,1, 7,21, 0,10,40.00,50.00,SummerDesignDay
8,22.076007189719684
10,9905745.178620702
321,731922.0390492778
2,1, 7,21, 0,10,50.00,60.00,SummerDesignDay
8,22.148412849449114
10,9931546.060332504
321,682256.0058597137
2,1, 7,21, 0,10, 0.00,60.00,SummerDesignDay
555,28.385919296753639
595,23.998020907347564
635,23.998057193763356
675,23.9981983375598
715,23.99801929663613
755,23.999093267567234
2,1, 7,21, 0,11, 0.00,10.00,SummerDesignDay
8,22.212128716251724
10,9950739.926442054
321,1166379.2361809842
2,1, 7,21, 0,11,10.00,20.00,SummerDesignDay
8,22.2756889298338
10,9983660.405816894
321,1226283.1622807072
2,1, 7,21, 0,11,20.00,30.00,SummerDesignDay
8,22.339085057218214
10,9996495.094588284
321,1816493.7509556942
2,1, 7,21, 0,11,30.00,40.00,SummerDesignDay
8,22.402327894875019
10,10004975.579904253
321,1198010.857412009
2,1, 7,21, 0,11,40.00,50.00,SummerDesignDay
8,22.465408036983417
10,10010262.184567143
321,1197498.4024725564
2,1, 7,21, 0,11,50.00,60.00,SummerDesignDay
8,22.52833534804036
10,10014088.135947252
321,1301812.3524129126
2,1, 7,21, 0,11, 0.00,60.00,SummerDesignDay
555,29.076848775690647
595,23.99797437854305
635,23.997835255967489
675,23.998458469464393
715,23.997882237295817
755,23.998947488104649
2,1, 7,21, 0,12, 0.00,10.00,SummerDesignDay
8,22.570195859141106
10,10012601.522578776
321,1751493.542902653
2,1, 7,21, 0,12,10.00,20.00,SummerDesignDay
8,22.611991082803763
10,10012627.334377708
321,1197966.7794108543
2,1, 7,21, 0,12,20.00,30.00,SummerDesignDay
8,22.653717080189638
10,10015625.734550676
321,1197419.0741785849
2,1, 7,21, 0,12,30.00,40.00,SummerDesignDay
8,22.695370353576199
10,10023070.246280697
321,1377779.9529450623
2,1, 7,21, 0,12,40.00,50.00,SummerDesignDay
8,22.73695904376563
10,10034016.640615575
321,1682812.2587143733
2,1, 7,21, 0,12,50.00,60.00,SummerDesignDay
8,22.778474332413724
10,10045619.809761892
321,1197918.4139145837
2,1, 7,21, 0,12, 0.00,60.00,SummerDesignDay
555,29.603956796473939
595,23.997758524027704
635,23.997433710503825
675,23.998647162560628
715,23.99764317870478
755,23.99881359674286
2,1, 7,21, 0,13, 0.00,10.00,SummerDesignDay
8,22.811641542609853
10,10014481.991500447
321,1197338.950176159
2,1, 7,21, 0,13,10.00,20.00,SummerDesignDay
8,22.844764583702866
10,10022328.75463064
321,1453662.8139076222
2,1, 7,21, 0,13,20.00,30.00,SummerDesignDay
8,22.877849014999574
10,10029901.600603832
321,1611293.1619303679
2,1, 7,21, 0,13,30.00,40.00,SummerDesignDay
8,22.910875849161117
10,10037360.253799798
321,1197865.7811923172
2,1, 7,21, 0,13,40.00,50.00,SummerDesignDay
8,22.943868108968599
10,10045836.650302342
321,1197258.147866852
2,1, 7,21, 0,13,50.00,60.00,SummerDesignDay
8,22.97681791561112
10,10054969.724267176
321,1528881.5111071524
2,1, 7,21, 0,13, 0.00,60.00,SummerDesignDay
555,29.955834373952468
595,23.998040574622015
635,23.99765849395976
675,23.998782109564144
715,23.997892719915297
755,23.99895070156678
2,1, 7,21, 0,14, 0.00,10.00,SummerDesignDay
8,22.99738479364458
10,10062955.337157999
321,1537716.134324677
2,1, 7,21, 0,14,10.00,20.00,SummerDesignDay
8,23.017939742631105
10,10070213.035443329
321,1197808.897375543
2,1, 7,21, 0,14,20.00,30.00,SummerDesignDay
8,23.03847761546047
10,10077536.708893029
321,1197176.7433522028
2,1, 7,21, 0,14,30.00,40.00,SummerDesignDay
8,23.058998564859715
10,10084512.809955085
321,1602815.0692691706
2,1, 7,21, 0,14,40.00,50.00,SummerDesignDay
8,23.079502846596939
10,10094802.941717495
321,1462767.5780969188
2,1, 7,21, 0,14,50.00,60.00,SummerDesignDay
8,23.099995241993793
10,10110195.669982274
321,1197747.7621298659
2,1, 7,21, 0,14, 0.00,60.00,SummerDesignDay
555,30.147193685360369
595,23.998163866724594
635,23.997965917739859
675,23.998822718378766
715,23.998004095956394
755,23.999003180251945
2,1, 7,21, 0,15, 0.00,10.00,SummerDesignDay
8,23.099995241993793
10,10195685.935074764
321,1197094.7692853285
2,1, 7,21, 0,15,10.00,20.00,SummerDesignDay
8,23.099995241993793
10,10229055.386333429
321,1674808.6116324843
2,1, 7,21, 0,15,20.00,30.00,SummerDesignDay
8,23.099995241993793
10,10264009.465541406
321,1387020.0345660579
2,1, 7,21, 0,15,30.00,40.00,SummerDesignDay
8,23.099995241993793
10,10304186.709069072
321,1197682.3468803927
2,1, 7,21, 0,15,40.00,50.00,SummerDesignDay
8,23.099995241993793
10,10343252.060644966
321,1197012.2131635959
2,1, 7,21, 0,15,50.00,60.00,SummerDesignDay
8,23.099995241993793
10,10378322.925649157
321,1744180.6846676323
2,1, 7,21, 0,15, 0.00,60.00,SummerDesignDay
555,30.169675849409349
595,24.014827765880928
635,24.014458481311978
675,23.998601925388085
715,24.002857632627479
755,23.9984773937267
2,1, 7,21, 0,16, 0.00,10.00,SummerDesignDay
8,23.075403091243229
10,10401354.092503649
321,1310921.6608521422
2,1, 7,21, 0,16,10.00,20.00,SummerDesignDay
8,23.05079230207949
10,10414024.070029874
321,1197612.5828718346
2,1, 7,21, 0,16,20.00,30.00,SummerDesignDay
8,23.02615697322547
10,10419294.659565025
321,1196929.0156831756
2,1, 7,21, 0,16,30.00,40.00,SummerDesignDay
8,23.00149729135515
10,10419166.966960509
321,1810229.622208559
2,1, 7,21, 0,16,40.00,50.00,SummerDesignDay
8,22.97681791561112
10,10412862.407099937
321,1234793.1306671587
2,1, 7,21, 0,16,50.00,60.00,SummerDesignDay
8,22.952109621926977
10,10405814.81181071
321,1197538.3487677994
2,1, 7,21, 0,16, 0.00,60.00,SummerDesignDay
555,30.00755225347017
595,24.092478005149049
635,23.998555917335936
675,23.998491097772445
715,24.053618479716236
755,23.99763937393727
2,1, 7,21, 0,17, 0.00,10.00,SummerDesignDay
8,22.91912809061474
10,10404630.041372933
321,1030980.2232601903
2,1, 7,21, 0,17,10.00,20.00,SummerDesignDay
8,22.886102743899686
10,10394141.505084373
321,1007275.8120992876
2,1, 7,21, 0,17,20.00,30.00,SummerDesignDay
8,22.853038160073415
10,10386016.73401799
321,1090503.2803495404
2,1, 7,21, 0,17,30.00,40.00,SummerDesignDay
8,22.81992592140411
10,10372531.218855724
321,1150825.797952354
2,1, 7,21, 0,17,40.00,50.00,SummerDesignDay
8,22.78677034885121
10,10359290.276496144
321,1151118.3275839582
2,1, 7,21, 0,17,50.00,60.00,SummerDesignDay
8,22.753575340556599
10,10349188.636907597
321,1151431.8166625414
2,1, 7,21, 0,17, 0.00,60.00,SummerDesignDay
555,29.66690894928062
595,24.12237713132373
635,23.997506426470069
675,23.99855433232268
715,24.06428088058557
755,24.00380288536624
2,1, 7,21, 0,18, 0.00,10.00,SummerDesignDay
8,22.71201418012816
10,9935523.751138011
321,870273.6807450424
2,1, 7,21, 0,18,10.00,20.00,SummerDesignDay
8,22.67038434655908
10,9891200.442708873
321,848432.3470355267
2,1, 7,21, 0,18,20.00,30.00,SummerDesignDay
8,22.628689701657064
10,9870156.180771072
321,809973.576841578
2,1, 7,21, 0,18,30.00,40.00,SummerDesignDay
8,22.58692261610899
10,9854691.76269899
321,682792.7872057399
2,1, 7,21, 0,18,40.00,50.00,SummerDesignDay
8,22.545094622178838
10,9838182.476919502
321,681562.9804009679
2,1, 7,21, 0,18,50.00,60.00,SummerDesignDay
8,22.50318309182767
10,9820215.953603706
321,680179.562183692
2,1, 7,21, 0,18, 0.00,60.00,SummerDesignDay
555,29.18069190940246
595,24.008391372452939
635,23.99787514208465
675,23.99885259652116
715,23.998913203821457
755,23.998965515619579
2,1, 7,21, 0,19, 0.00,10.00,SummerDesignDay
8,22.440193165050539
10,7467759.934621275
321,498278.26681206069
2,1, 7,21, 0,19,10.00,20.00,SummerDesignDay
8,22.377049774700379
10,7374880.947653605
321,679701.0129479854
2,1, 7,21, 0,19,20.00,30.00,SummerDesignDay
8,22.313748391361807
10,7310699.176465544
321,570955.3454109094
2,1, 7,21, 0,19,30.00,40.00,SummerDesignDay
8,22.250283638762555
10,7245362.536010897
321,156524.5810041153
2,1, 7,21, 0,19,40.00,50.00,SummerDesignDay
8,22.186663881675249
10,7175231.90929373
321,678989.2822177406
2,1, 7,21, 0,19,50.00,60.00,SummerDesignDay
8,22.12288033238562
10,7106838.478035355
321,682021.3150555423
2,1, 7,21, 0,19, 0.00,60.00,SummerDesignDay
555,28.54698216987109
595,23.9990388658926
635,23.998922924866379
675,23.999390027210649
715,23.998836290282357
755,23.99894246322579
2,1, 7,21, 0,20, 0.00,10.00,SummerDesignDay
8,22.076007189719684
10,5218875.109885726
321,12000.0
2,1, 7,21, 0,20,10.00,20.00,SummerDesignDay
8,22.029043318072469
10,5128267.827223098
321,622663.5245252734
2,1, 7,21, 0,20,20.00,30.00,SummerDesignDay
8,21.98199252605304
10,5053846.328869784
321,12000.0
2,1, 7,21, 0,20,30.00,40.00,SummerDesignDay
8,21.934858758847967
10,4968383.953382503
321,622271.7829319871
2,1, 7,21, 0,20,40.00,50.00,SummerDesignDay
8,21.887632995496593
10,4883546.325670452
321,12000.0
2,1, 7,21, 0,20,50.00,60.00,SummerDesignDay
8,21.84032373907298
10,4798513.719094904
321,621800.4789240141
2,1, 7,21, 0,20, 0.00,60.00,SummerDesignDay
555,27.804523468669
595,23.999702042655576
635,23.999570092439798
675,23.999717820425727
715,23.999492104746606
755,23.999605488329555
2,1, 7,21, 0,21, 0.00,10.00,SummerDesignDay
8,21.801546565825509
10,4739624.982102364
321,12000.0
2,1, 7,21, 0,21,10.00,20.00,SummerDesignDay
8,21.76271101694355
10,4692965.906991483
321,621308.3914177433
2,1, 7,21, 0,21,20.00,30.00,SummerDesignDay
8,21.723820025286508
10,4652778.751621338
321,12000.0
2,1, 7,21, 0,21,30.00,40.00,SummerDesignDay
8,21.684865349420268
10,4617270.017474681
321,620793.4492121863
2,1, 7,21, 0,21,40.00,50.00,SummerDesignDay
8,21.64585085731248
10,4585430.348916691
321,12000.0
2,1, 7,21, 0,21,50.00,60.00,SummerDesignDay
8,21.60678130377771
10,4555991.845771839
321,620253.3569031159
2,1, 7,21, 0,21, 0.00,60.00,SummerDesignDay
555,27.143188083607915
595,23.99986201351292
635,23.999740192033305
675,23.999811776528259
715,23.99975501664841
755,23.999834759870397
2,1, 7,21, 0,22, 0.00,10.00,SummerDesignDay
8,21.56764737497003
10,2084480.6476493085
321,12000.0
2,1, 7,21, 0,22,10.00,20.00,SummerDesignDay
8,21.528453025200269
10,2049888.564101238
321,714497.1336650767
2,1, 7,21, 0,22,20.00,30.00,SummerDesignDay
8,21.489203608374294
10,2043368.9034504884
321,167464.29839989145
2,1, 7,21, 0,22,30.00,40.00,SummerDesignDay
8,21.44988894693607
10,2023251.4563569574
321,752056.4355071563
2,1, 7,21, 0,22,40.00,50.00,SummerDesignDay
8,21.410513341264765
10,2065700.2646075367
321,171152.8593789366
2,1, 7,21, 0,22,50.00,60.00,SummerDesignDay
8,21.371081521590339
10,2035169.570130522
321,543936.5081308038
2,1, 7,21, 0,22, 0.00,60.00,SummerDesignDay
555,26.825102645074165
595,25.760695498818575
635,26.00380827335314
675,26.431637885445583
715,25.976748882711236
755,26.731615282776788
2,1, 7,21, 0,23, 0.00,10.00,SummerDesignDay
8,21.340367013881254
10,2012782.6140386996
321,12000.0
2,1, 7,21, 0,23,10.00,20.00,SummerDesignDay
8,21.30961596310197
10,2020217.450782126
321,12000.0
2,1, 7,21, 0,23,20.00,30.00,SummerDesignDay
8,21.27883206169926
10,2012752.5385906848
321,12000.0
2,1, 7,21, 0,23,30.00,40.00,SummerDesignDay
8,21.248005985660276
10,2005656.194675607
321,553781.1559726994
2,1, 7,21, 0,23,40.00,50.00,SummerDesignDay
8,21.21714394012603
10,2005656.194675607
321,12000.0
2,1, 7,21, 0,23,50.00,60.00,SummerDesignDay
8,21.186243969194629
10,2005656.194675607
321,12000.0
2,1, 7,21, 0,23, 0.00,60.00,SummerDesignDay
555,26.55022078603857
595,27.055255507262847
635,27.28503713552421
675,27.90767142636213
715,27.245443072826324
755,28.35016130606837
2,1, 7,21, 0,24, 0.00,10.00,SummerDesignDay
8,21.155310837526526
10,1876981.8004704056
321,12000.0
2,1, 7,21, 0,24,10.00,20.00,SummerDesignDay
8,21.12433685554014
10,1876981.8004704056
321,12000.0
2,1, 7,21, 0,24,20.00,30.00,SummerDesignDay
8,21.0933245611684
10,1876981.8004704056
321,12000.0
2,1, 7,21, 0,24,30.00,40.00,SummerDesignDay
8,21.062275376793069
10,1876981.8004704056
321,121966.63165530935
2,1, 7,21, 0,24,40.00,50.00,SummerDesignDay
8,21.031192991283075
10,1876981.8004704056
321,465508.4804902429
2,1, 7,21, 0,24,50.00,60.00,SummerDesignDay
8,21.000068174984919
10,1876981.8004704056
321,12000.0
2,1, 7,21, 0,24, 0.00,60.00,SummerDesignDay
555,26.379250405269536
595,27.09957261002883
635,27.323211547135246
675,28.0498049807499
715,27.28643888988144
755,28.54220175721397
3,1, 7,21, 0,SummerDesignDay
556,61.014024808300629,52.716063282817319,15,10,68.19189953395403, 6,20
596,56.47867005514655,49.7883922251242,22,45,69.697450534853, 7,10
636,55.48733161548341,49.110222417366248,22,45,69.77345893534543, 7, 8
676,53.31586238359974,46.713838363314888, 9,60,67.656984350459, 7, 7
716,55.78269339828474,49.245946697001247,22,45,69.48341072802123, 7, 9
756,53.03006998333914,44.94585385875071,22,45,68.26259415358872, 7, 6
4,1, 7
7,27.120125000000006,22.9,21, 5,60,32.0,21,14,60
1,WINDSOR INTL AP ANN HTG 99.6% CONDNS DB,  42.28, -82.96,  -5.00, 189.60
2,1, 1,21, 0, 1, 0.00,10.00,WinterDesignDay
8,-15.500002903810355
10,1876981.8004704056
321,7754763.44694345
2,1, 1,21, 0, 1,10.00,20.00,WinterDesignDay
8,-15.500002903810355
10,1876981.8004704056
321,7820613.947193792
2,1, 1,21, 0, 1,20.00,30.00,WinterDesignDay
8,-15.500002903810355
10,1876981.8004704056
321,7884707.782231724
2,1, 1,21, 0, 1,30.00,40.00,WinterDesignDay
8,-15.500002903810355
10,1876981.8004704056
321,7947128.558506108
2,1, 1,21, 0, 1,40.00,50.00,WinterDesignDay
8,-15.500002903810355
10,1876981.8004704056
321,8008094.366870701
2,1, 1,21, 0, 1,50.00,60.00,WinterDesignDay
8,-15.500002903810355
10,1876981.8004704056
321,8612293.09406284
2,1, 1,21, 0, 1, 0.00,60.00,WinterDesignDay
555,12.167953678276869
595,18.000010274237515
635,18.000107384681696
675,18.00007375347307
715,18.000102287097414
755,18.000071983139838
2,1, 1,21, 0, 2, 0.00,10.00,WinterDesignDay
8,-15.500002903810355
10,1876981.8004704056
321,8125918.72466729
2,1, 1,21, 0, 2,10.00,20.00,WinterDesignDay
8,-15.500002903810355
10,1876981.8004704056
321,8183282.809798326
2,1, 1,21, 0, 2,20.00,30.00,WinterDesignDay
8,-15.500002903810355
10,1876981.8004704056
321,8240027.549399188
2,1, 1,21, 0, 2,30.00,40.00,WinterDesignDay
8,-15.500002903810355
10,1876981.8004704056
321,8296000.996796277
2,1, 1,21, 0, 2,40.00,50.00,WinterDesignDay
8,-15.500002903810355
10,1876981.8004704056
321,8899910.268533756
2,1, 1,21, 0, 2,50.00,60.00,WinterDesignDay
8,-15.500002903810355
10,1876981.8004704056
321,8405546.184731292
2,1, 1,21, 0, 2, 0.00,60.00,WinterDesignDay
555,11.967497436100756
595,18.00001561212477
635,18.000085020004748
675,18.000060032096625
715,18.00008129102736
755,18.00005879422971
2,1, 1,21, 0, 3, 0.00,10.00,WinterDesignDay
8,-15.500002903810355
10,1876981.8004704056
321,8458986.141437104
2,1, 1,21, 0, 3,10.00,20.00,WinterDesignDay
8,-15.500002903810355
10,1876981.8004704056
321,8512257.28951075
2,1, 1,21, 0, 3,20.00,30.00,WinterDesignDay
8,-15.500002903810355
10,1876981.8004704056
321,8564984.89888216
2,1, 1,21, 0, 3,30.00,40.00,WinterDesignDay
8,-15.500002903810355
10,1876981.8004704056
321,9028111.841677916
2,1, 1,21, 0, 3,40.00,50.00,WinterDesignDay
8,-15.500002903810355
10,1876981.8004704056
321,8842334.155645324
2,1, 1,21, 0, 3,50.00,60.00,WinterDesignDay
8,-15.500002903810355
10,1876981.8004704056
321,8719062.907466589
2,1, 1,21, 0, 3, 0.00,60.00,WinterDesignDay
555,11.780112670483263
595,18.000017710724977
635,18.000069298392647
675,18.0000496198732
715,18.000066469517809
755,18.000048689962989
2,1, 1,21, 0, 4, 0.00,10.00,WinterDesignDay
8,-15.500002903810355
10,1876981.8004704056
321,8769501.343024098
2,1, 1,21, 0, 4,10.00,20.00,WinterDesignDay
8,-15.500002903810355
10,1876981.8004704056
321,8819474.167803223
2,1, 1,21, 0, 4,20.00,30.00,WinterDesignDay
8,-15.500002903810355
10,1876981.8004704056
321,8868912.476916252
2,1, 1,21, 0, 4,30.00,40.00,WinterDesignDay
8,-15.500002903810355
10,1876981.8004704056
321,9462202.131473253
2,1, 1,21, 0, 4,40.00,50.00,WinterDesignDay
8,-15.500002903810355
10,1876981.8004704056
321,8965702.974552302
2,1, 1,21, 0, 4,50.00,60.00,WinterDesignDay
8,-15.500002903810355
10,1876981.8004704056
321,9013290.157772122
2,1, 1,21, 0, 4, 0.00,60.00,WinterDesignDay
555,11.606447205339812
595,18.00001843976599
635,18.000058552811976
675,18.00004186041469
715,18.000056334845835
755,18.000041068548023
2,1, 1,21, 0, 5, 0.00,10.00,WinterDesignDay
8,-15.500002903810355
10,1876981.8004704056
321,9060599.174206209
2,1, 1,21, 0, 5,10.00,20.00,WinterDesignDay
8,-15.500002903810355
10,1876981.8004704056
321,9107402.806451906
2,1, 1,21, 0, 5,20.00,30.00,WinterDesignDay
8,-15.500002903810355
10,1876981.8004704056
321,9702257.027475492
2,1, 1,21, 0, 5,30.00,40.00,WinterDesignDay
8,-15.500002903810355
10,1876981.8004704056
321,9199166.433214104
2,1, 1,21, 0, 5,40.00,50.00,WinterDesignDay
8,-15.500002903810355
10,1876981.8004704056
321,9243917.70486528
2,1, 1,21, 0, 5,50.00,60.00,WinterDesignDay
8,-15.500002903810355
10,1876981.8004704056
321,9288546.355024558
2,1, 1,21, 0, 5, 0.00,60.00,WinterDesignDay
555,11.446802887715754
595,18.000018686828129
635,18.000051381125514
675,18.000036145815967
715,18.000049588946948
755,18.00003537645702
2,1, 1,21, 0, 6, 0.00,10.00,WinterDesignDay
8,-15.500002903810355
10,1876981.8004704056
321,9332742.451686314
2,1, 1,21, 0, 6,10.00,20.00,WinterDesignDay
8,-15.500002903810355
10,1876981.8004704056
321,9799295.439781022
2,1, 1,21, 0, 6,20.00,30.00,WinterDesignDay
8,-15.500002903810355
10,1876981.8004704056
321,9579605.207220618
2,1, 1,21, 0, 6,30.00,40.00,WinterDesignDay
8,-15.500002903810355
10,1876981.8004704056
321,9461381.895892075
2,1, 1,21, 0, 6,40.00,50.00,WinterDesignDay
8,-15.500002903810355
10,1876981.8004704056
321,9503406.596259498
2,1, 1,21, 0, 6,50.00,60.00,WinterDesignDay
8,-15.500002903810355
10,1876981.8004704056
321,9544986.671957983
2,1, 1,21, 0, 6, 0.00,60.00,WinterDesignDay
555,11.301458929261317
595,18.000018873325414
635,18.000046725708108
675,18.000031984158765
715,18.00004523819875
755,18.000031164209799
2,1, 1,21, 0, 7, 0.00,10.00,WinterDesignDay
8,-15.500002903810355
10,1913928.5478918788
321,17786726.01577109
2,1, 1,21, 0, 7,10.00,20.00,WinterDesignDay
8,-15.500002903810355
10,1876981.8004704056
321,11210092.705208287
2,1, 1,21, 0, 7,20.00,30.00,WinterDesignDay
8,-15.500002903810355
10,1876981.8004704056
321,16176912.29884721
2,1, 1,21, 0, 7,30.00,40.00,WinterDesignDay
8,-15.500002903810355
10,1876981.8004704056
321,14789519.806390776
2,1, 1,21, 0, 7,40.00,50.00,WinterDesignDay
8,-15.500002903810355
10,1876981.8004704056
321,14534408.206217336
2,1, 1,21, 0, 7,50.00,60.00,WinterDesignDay
8,-15.500002903810355
10,1876981.8004704056
321,14397335.102831472
2,1, 1,21, 0, 7, 0.00,60.00,WinterDesignDay
555,11.176747170606028
595,19.97252045284137
635,19.981112699176497
675,20.004670087293957
715,19.980066911565733
755,20.00364888024156
2,1, 1,21, 0, 8, 0.00,10.00,WinterDesignDay
8,-15.500002903810355
10,2796471.7540820545
321,25008739.148634409
2,1, 1,21, 0, 8,10.00,20.00,WinterDesignDay
8,-15.500002903810355
10,2750458.196040763
321,15574773.337208329
2,1, 1,21, 0, 8,20.00,30.00,WinterDesignDay
8,-15.500002903810355
10,2750458.196040763
321,20432727.609769439
2,1, 1,21, 0, 8,30.00,40.00,WinterDesignDay
8,-15.500002903810355
10,2750458.196040763
321,19584271.789510207
2,1, 1,21, 0, 8,40.00,50.00,WinterDesignDay
8,-15.500002903810355
10,2750458.196040763
321,18578733.81629594
2,1, 1,21, 0, 8,50.00,60.00,WinterDesignDay
8,-15.500002903810355
10,2750458.196040763
321,18447687.052872994
2,1, 1,21, 0, 8, 0.00,60.00,WinterDesignDay
555,11.12835577824589
595,21.967825068968293
635,21.975916848396968
675,21.994625893639364
715,21.974921200365967
755,21.998170017858447
2,1, 1,21, 0, 9, 0.00,10.00,WinterDesignDay
8,-15.500002903810355
10,6074270.587699008
321,16362556.286455298
2,1, 1,21, 0, 9,10.00,20.00,WinterDesignDay
8,-15.500002903810355
10,6074270.587699008
321,15937576.082682409
2,1, 1,21, 0, 9,20.00,30.00,WinterDesignDay
8,-15.500002903810355
10,6074270.587699008
321,15726565.024905373
2,1, 1,21, 0, 9,30.00,40.00,WinterDesignDay
8,-15.500002903810355
10,6074270.587699008
321,15493672.078848316
2,1, 1,21, 0, 9,40.00,50.00,WinterDesignDay
8,-15.500002903810355
10,6074270.587699008
321,15299886.008976404
2,1, 1,21, 0, 9,50.00,60.00,WinterDesignDay
8,-15.500002903810355
10,6074270.587699008
321,15133935.909196863
2,1, 1,21, 0, 9, 0.00,60.00,WinterDesignDay
555,11.213977553236767
595,22.000239573756877
635,22.00040476999611
675,22.000250168189017
715,22.000397081430525
755,22.00023167125735
2,1, 1,21, 0,10, 0.00,10.00,WinterDesignDay
8,-15.500002903810355
10,6672542.091514323
321,14419430.810208919