Program Version,EnergyPlus, Version 8.9.0-eba93e8e1b, YMD=2018.11.01 15:52
1,5,Environment Title[],Latitude[deg],Longitude[deg],Time Zone[],Elevation[m]
2,8,Day of Simulation[],Month[],Day of Month[],DST Indicator[1=yes 0=no],Hour[],StartMinute[],EndMinute[],DayType
3,5,Cumulative Day of Simulation[],Month[],Day of Month[],DST Indicator[1=yes 0=no],DayType  ! When Daily Report Variables Requested
4,2,Cumulative Days of Simulation[],Month[]  ! When Monthly Report Variables Requested
5,1,Cumulative Days of Simulation[] ! When Run Period Report Variables Requested
6,1,Calendar Year of Simulation[] ! When Annual Report Variables Requested
7,9,Environment,Site Outdoor Air Drybulb Temperature [C] !Monthly [Value,Min,Day,Hour,Minute,Max,Day,Hour,Minute]
8,1,Environment,Site Outdoor Air Wetbulb Temperature [C] !TimeStep
357,1,ATTIC ZN,Zone Air Temperature [C] !Hourly
358,7,ATTIC ZN,Zone Air Relative Humidity [%] !Daily [Value,Min,Hour,Minute,Max,Hour,Minute]
397,1,CORE_ZN ZN,Zone Air Temperature [C] !Hourly
398,7,CORE_ZN ZN,Zone Air Relative Humidity [%] !Daily [Value,Min,Hour,Minute,Max,Hour,Minute]
437,1,PERIMETER_ZN_1 ZN,Zone Air Temperature [C] !Hourly
438,7,PERIMETER_ZN_1 ZN,Zone Air Relative Humidity [%] !Daily [Value,Min,Hour,Minute,Max,Hour,Minute]
477,1,PERIMETER_ZN_2 ZN,Zone Air Temperature [C] !Hourly
478,7,PERIMETER_ZN_2 ZN,Zone Air Relative Humidity [%] !Daily [Value,Min,Hour,Minute,Max,Hour,Minute]
517,1,PERIMETER_ZN_3 ZN,Zone Air Temperature [C] !Hourly
518,7,PERIMETER_ZN_3 ZN,Zone Air Relative Humidity [%] !Daily [Value,Min,Hour,Minute,Max,Hour,Minute]
557,1,PERIMETER_ZN_4 ZN,Zone Air Temperature [C] !Hourly
558,7,PERIMETER_ZN_4 ZN,Zone Air Relative Humidity [%] !Daily [Value,Min,Hour,Minute,Max,Hour,Minute]
10,1,Electricity:Facility [J] !TimeStep
708,1,DistrictCooling:Facility [J] !TimeStep
671,1,DistrictHeating:Facility [J] !TimeStep
End of Data Dictionary
1,OTTAWA=MACDONALD-CARTIER INTL ANN CLG .4% CONDNS DB=>MWB,  45.32, -75.67,  -5.00, 114.90
2,1, 7,21, 0, 1, 0.00,10.00,SummerDesignDay
8,19.2840458690032
10,588883.2432939032
671,0.0
708,0.0
2,1, 7,21, 0, 1,10.00,20.00,SummerDesignDay
8,19.25220058801155
10,588883.2432939032
671,0.0
708,0.0
2,1, 7,21, 0, 1,20.00,30.00,SummerDesignDay
8,19.2203165671003
10,588883.2432939032
671,0.0
708,0.0
2,1, 7,21, 0, 1,30.00,40.00,SummerDesignDay
8,19.188388626363016
10,588883.2432939032
671,0.0
708,0.0
2,1, 7,21, 0, 1,40.00,50.00,SummerDesignDay
8,19.15642770709394
10,588883.2432939032
671,0.0
708,0.0
2,1, 7,21, 0, 1,50.00,60.00,SummerDesignDay
8,19.124427397166604
10,588883.2432939032
671,0.0
708,0.0
2,1, 7,21, 0, 1, 0.00,60.00,SummerDesignDay
357,25.476546734020464
397,25.25691112357485
437,25.276665261002007
477,25.41832925529899
517,25.252962980722008
557,25.749293135876088
2,1, 7,21, 0, 2, 0.00,10.00,SummerDesignDay
8,19.103070457286994
10,588883.2432939032
671,0.0
708,0.0
2,1, 7,21, 0, 2,10.00,20.00,SummerDesignDay
8,19.08170119193842
10,588883.2432939032
671,0.0
708,0.0
2,1, 7,21, 0, 2,20.00,30.00,SummerDesignDay
8,19.06030939273045
10,588883.2432939032
671,0.0
708,0.0
2,1, 7,21, 0, 2,30.00,40.00,SummerDesignDay
8,19.03890076386851
10,588883.2432939032
671,0.0
708,0.0
2,1, 7,21, 0, 2,40.00,50.00,SummerDesignDay
8,19.01747444558601
10,588883.2432939032
671,0.0
708,0.0
2,1, 7,21, 0, 2,50.00,60.00,SummerDesignDay
8,18.996036037989819
10,588883.2432939032
671,0.0
708,0.0
2,1, 7,21, 0, 2, 0.00,60.00,SummerDesignDay
357,25.301864877376095
397,25.080306711046459
437,25.075263926692615
477,25.216528791918696
517,25.058341221139938
557,25.522666844072928
2,1, 7,21, 0, 3, 0.00,10.00,SummerDesignDay
8,18.97994058577143
10,588883.2432939032
671,0.0
708,0.0
2,1, 7,21, 0, 3,10.00,20.00,SummerDesignDay
8,18.96383509390068
10,588883.2432939032
671,0.0
708,0.0
2,1, 7,21, 0, 3,20.00,30.00,SummerDesignDay
8,18.947724870466826
10,588883.2432939032
671,0.0
708,0.0
2,1, 7,21, 0, 3,30.00,40.00,SummerDesignDay
8,18.931599991201066
10,588883.2432939032
671,0.0
708,0.0
2,1, 7,21, 0, 3,40.00,50.00,SummerDesignDay
8,18.915470425479847
10,588883.2432939032
671,0.0
708,0.0
2,1, 7,21, 0, 3,50.00,60.00,SummerDesignDay
8,18.8993255989201
10,588883.2432939032
671,0.0
708,0.0
2,1, 7,21, 0, 3, 0.00,60.00,SummerDesignDay
357,25.142568316252548
397,24.92313753900442
437,24.895401500226936
477,25.033893119761136
517,24.88421169439177
557,25.316308552925578
2,1, 7,21, 0, 4, 0.00,10.00,SummerDesignDay
8,18.883176400800605
10,588883.2432939032
671,0.0
708,0.0
2,1, 7,21, 0, 4,10.00,20.00,SummerDesignDay
8,18.867011710849643
10,588883.2432939032
671,0.0
708,0.0
2,1, 7,21, 0, 4,20.00,30.00,SummerDesignDay
8,18.850837592647797
10,588883.2432939032
671,0.0
708,0.0
2,1, 7,21, 0, 4,30.00,40.00,SummerDesignDay
8,18.834658360362007
10,588883.2432939032
671,0.0
708,0.0
2,1, 7,21, 0, 4,40.00,50.00,SummerDesignDay
8,18.8184648850153
10,588883.2432939032
671,0.0
708,0.0
2,1, 7,21, 0, 4,50.00,60.00,SummerDesignDay
8,18.8022655410338
10,588883.2432939032
671,0.0
708,0.0
2,1, 7,21, 0, 4, 0.00,60.00,SummerDesignDay
357,24.989941638645168
397,24.775038468657248
437,24.725870024860418
477,24.860838105808076
517,24.719735240612697
557,25.12099588161534
2,1, 7,21, 0, 5, 0.00,10.00,SummerDesignDay
8,18.79145567867417
10,588883.2432939032
671,0.0
708,0.0
2,1, 7,21, 0, 5,10.00,20.00,SummerDesignDay
8,18.780646332866213
10,588883.2432939032
671,0.0
708,0.0
2,1, 7,21, 0, 5,20.00,30.00,SummerDesignDay
8,18.76983296444122
10,588883.2432939032
671,0.0
708,0.0
2,1, 7,21, 0, 5,30.00,40.00,SummerDesignDay
8,18.75901007085189
10,588883.2432939032
671,0.0
708,0.0
2,1, 7,21, 0, 5,40.00,50.00,SummerDesignDay
8,18.7481869937485
10,588883.2432939032
671,0.0
708,0.0
2,1, 7,21, 0, 5,50.00,60.00,SummerDesignDay
8,18.737365749092537
10,588883.2432939032
671,0.0
708,0.0
2,1, 7,21, 0, 5, 0.00,60.00,SummerDesignDay
357,24.857872594890649
397,24.633464199259607
437,24.56909000984511
477,24.74116347834381
517,24.579665280791166
557,24.939913179788947
2,1, 7,21, 0, 6, 0.00,10.00,SummerDesignDay
8,18.7481869937485
10,588883.2432939032
671,0.0
708,0.0
2,1, 7,21, 0, 6,10.00,20.00,SummerDesignDay
8,18.75901007085189
10,588883.2432939032
671,0.0
708,0.0
2,1, 7,21, 0, 6,20.00,30.00,SummerDesignDay
8,18.76983296444122
10,588883.2432939032
671,0.0
708,0.0
2,1, 7,21, 0, 6,30.00,40.00,SummerDesignDay
8,18.780646332866213
10,588883.2432939032
671,0.0
708,0.0
2,1, 7,21, 0, 6,40.00,50.00,SummerDesignDay
8,18.79145567867417
10,588883.2432939032
671,0.0
708,0.0
2,1, 7,21, 0, 6,50.00,60.00,SummerDesignDay
8,18.8022655410338
10,588883.2432939032
671,0.0
708,0.0
2,1, 7,21, 0, 6, 0.00,60.00,SummerDesignDay
357,25.00163581874091
397,24.58776967859849
437,24.556811640294627
477,25.712135146354674
517,24.71726475066968
557,24.892433773884166
2,1, 7,21, 0, 7, 0.00,10.00,SummerDesignDay
8,18.840052605786814
10,588883.2432939032
671,0.0
708,6564868.855784853
2,1, 7,21, 0, 7,10.00,20.00,SummerDesignDay
8,18.87778619489805
10,588883.2432939032
671,0.0
708,350163.0835364258
2,1, 7,21, 0, 7,20.00,30.00,SummerDesignDay
8,18.915470425479847
10,588883.2432939032
671,0.0
708,3595270.790530562
2,1, 7,21, 0, 7,30.00,40.00,SummerDesignDay
8,18.953096118062495
10,588883.2432939032
671,0.0
708,4541383.9950641109
2,1, 7,21, 0, 7,40.00,50.00,SummerDesignDay
8,18.99066883495391
10,588883.2432939032
671,0.0
708,3441071.5166817668
2,1, 7,21, 0, 7,50.00,60.00,SummerDesignDay
8,19.02819215483863
10,588883.2432939032
671,0.0
708,3739057.3231304769
2,1, 7,21, 0, 7, 0.00,60.00,SummerDesignDay
357,25.423234060408296
397,23.900533254659679
437,23.933040259671633
477,23.974272455833448
517,23.930569676805474
557,23.91116109345488
2,1, 7,21, 0, 8, 0.00,10.00,SummerDesignDay
8,19.119090922986229
10,1462359.638864261
671,0.0
708,4734595.026031458
2,1, 7,21, 0, 8,10.00,20.00,SummerDesignDay
8,19.209676482065853
10,1462359.638864261
671,0.0
708,4902355.756659525
2,1, 7,21, 0, 8,20.00,30.00,SummerDesignDay
8,19.299951906634847
10,1462359.638864261
671,0.0
708,5018738.128602519
2,1, 7,21, 0, 8,30.00,40.00,SummerDesignDay
8,19.389928824990219
10,1462359.638864261
671,0.0
708,5049947.404246647
2,1, 7,21, 0, 8,40.00,50.00,SummerDesignDay
8,19.4795823892733
10,1462359.638864261
671,0.0
708,5044350.918652557
2,1, 7,21, 0, 8,50.00,60.00,SummerDesignDay
8,19.568935475929295
10,1462359.638864261
671,0.0
708,5064152.8556008129
2,1, 7,21, 0, 8, 0.00,60.00,SummerDesignDay
357,26.111989156335914
397,23.999999999539058
437,23.999999999965394
477,23.999999999999916
517,23.9999999999546
557,23.99999999992144
2,1, 7,21, 0, 9, 0.00,10.00,SummerDesignDay
8,19.66844507688812
10,4786172.030522507
671,0.0
708,7690772.409206834
2,1, 7,21, 0, 9,10.00,20.00,SummerDesignDay
8,19.767573179707669
10,4786172.030522507
671,0.0
708,7948660.433681179
2,1, 7,21, 0, 9,20.00,30.00,SummerDesignDay
8,19.866330746445795
10,4786172.030522507
671,0.0
708,8092122.7039672159
2,1, 7,21, 0, 9,30.00,40.00,SummerDesignDay
8,19.964711871061558
10,4786172.030522507
671,0.0
708,8231587.6928096939
2,1, 7,21, 0, 9,40.00,50.00,SummerDesignDay
8,20.062727728864816
10,4786172.030522507
671,0.0
708,8379347.203108103
2,1, 7,21, 0, 9,50.00,60.00,SummerDesignDay
8,20.160375627757714
10,4786172.030522507
671,0.0
708,8512505.94106505
2,1, 7,21, 0, 9, 0.00,60.00,SummerDesignDay
357,26.926830297247848
397,24.00000000000003
437,24.0
477,24.000000000000047
517,24.000000000000026
557,24.000000000000019
2,1, 7,21, 0,10, 0.00,10.00,SummerDesignDay
8,20.247432286023
10,5384443.534337821
671,0.0
708,9189966.756896554
2,1, 7,21, 0,10,10.00,20.00,SummerDesignDay
8,20.334198251055687
10,5384443.534337821
671,0.0
708,9324629.952991644
2,1, 7,21, 0,10,20.00,30.00,SummerDesignDay
8,20.420674889330156
10,5384443.534337821
671,0.0
708,9434147.420263794
2,1, 7,21, 0,10,30.00,40.00,SummerDesignDay
8,20.50686410461129
10,5384443.534337821
671,0.0
708,9527540.483541536
2,1, 7,21, 0,10,40.00,50.00,SummerDesignDay
8,20.59277197915242
10,5384443.534337821
671,0.0
708,9606905.765986512
2,1, 7,21, 0,10,50.00,60.00,SummerDesignDay
8,20.67839100058158
10,5384443.534337821
671,0.0
708,9675389.832166046
2,1, 7,21, 0,10, 0.00,60.00,SummerDesignDay
357,27.726425893044305
397,24.000000000000026
437,24.000000000000058
477,24.000000000000005
517,24.000000000000044
557,24.000000000000005
2,1, 7,21, 0,11, 0.00,10.00,SummerDesignDay
8,20.75370382828009
10,5384443.534337821
671,0.0
708,9734505.806593189
2,1, 7,21, 0,11,10.00,20.00,SummerDesignDay
8,20.82879725584293
10,5384443.534337821
671,0.0
708,9796872.236006001
2,1, 7,21, 0,11,20.00,30.00,SummerDesignDay
8,20.90366855164364
10,5384443.534337821
671,0.0
708,9866252.59751366
2,1, 7,21, 0,11,30.00,40.00,SummerDesignDay
8,20.978327197140595
10,5384443.534337821
671,0.0
708,9944772.808337359
2,1, 7,21, 0,11,40.00,50.00,SummerDesignDay
8,21.052770435649987
10,5384443.534337821
671,0.0
708,10035214.268391323
2,1, 7,21, 0,11,50.00,60.00,SummerDesignDay
8,21.126998315025806
10,5384443.534337821
671,0.0
708,10137559.318919965
2,1, 7,21, 0,11, 0.00,60.00,SummerDesignDay
357,28.401253582554437
397,24.000000000000026
437,23.99999999999997
477,23.999999999999998
517,24.0
557,24.000000000000044
2,1, 7,21, 0,12, 0.00,10.00,SummerDesignDay
8,21.176364764512436
10,5384443.534337821
671,0.0
708,10226941.710810237
2,1, 7,21, 0,12,10.00,20.00,SummerDesignDay
8,21.225636252128049
10,5384443.534337821
671,0.0
708,10279963.174880883
2,1, 7,21, 0,12,20.00,30.00,SummerDesignDay
8,21.27481408813442
10,5384443.534337821
671,0.0
708,10332131.063277226
2,1, 7,21, 0,12,30.00,40.00,SummerDesignDay
8,21.32389714161367
10,5384443.534337821
671,0.0
708,10386649.883195745
2,1, 7,21, 0,12,40.00,50.00,SummerDesignDay
8,21.372882039030619
10,5384443.534337821
671,0.0
708,10450537.562185308
2,1, 7,21, 0,12,50.00,60.00,SummerDesignDay
8,21.421778222706306
10,5384443.534337821
671,0.0
708,10517499.212691462
2,1, 7,21, 0,12, 0.00,60.00,SummerDesignDay
357,28.91059286978702
397,24.000000000000026
437,24.000000000000019
477,24.0
517,24.000000000000044
557,23.999999999999959
2,1, 7,21, 0,13, 0.00,10.00,SummerDesignDay
8,21.460829759656176
10,5384443.534337821
671,0.0
708,10159821.260972679
2,1, 7,21, 0,13,10.00,20.00,SummerDesignDay
8,21.499817003159384
10,5384443.534337821
671,0.0
708,10166916.992346798
2,1, 7,21, 0,13,20.00,30.00,SummerDesignDay
8,21.53875017563149
10,5384443.534337821
671,0.0
708,10172465.274703287
2,1, 7,21, 0,13,30.00,40.00,SummerDesignDay
8,21.57761871831439
10,5384443.534337821
671,0.0
708,10185015.836101646
2,1, 7,21, 0,13,40.00,50.00,SummerDesignDay
8,21.616433450967234
10,5384443.534337821
671,0.0
708,10207675.247385012
2,1, 7,21, 0,13,50.00,60.00,SummerDesignDay
8,21.655184624488759
10,5384443.534337821
671,0.0
708,10237663.602523607
2,1, 7,21, 0,13, 0.00,60.00,SummerDesignDay
357,29.242784490193946
397,23.99999999999999
437,24.000000000000019
477,24.0
517,24.00000000000003
557,23.999999999999948
2,1, 7,21, 0,14, 0.00,10.00,SummerDesignDay
8,21.67937576104208
10,5384443.534337821
671,0.0
708,10259895.752431449
2,1, 7,21, 0,14,10.00,20.00,SummerDesignDay
8,21.703544513972305
10,5384443.534337821
671,0.0
708,10296340.68136499
2,1, 7,21, 0,14,20.00,30.00,SummerDesignDay
8,21.727690125397957
10,5384443.534337821
671,0.0
708,10352326.513747935
2,1, 7,21, 0,14,30.00,40.00,SummerDesignDay
8,21.751812391480358
10,5384443.534337821
671,0.0
708,10424209.856722272
2,1, 7,21, 0,14,40.00,50.00,SummerDesignDay
8,21.7759121945202
10,5384443.534337821
671,0.0
708,10511998.605961973
2,1, 7,21, 0,14,50.00,60.00,SummerDesignDay
8,21.799989308895414
10,5384443.534337821
671,0.0
708,10614377.817811149
2,1, 7,21, 0,14, 0.00,60.00,SummerDesignDay
357,29.412156209977437
397,24.000000000000015
437,23.999999999999984
477,24.0
517,24.000000000000019
557,24.00000000000004
2,1, 7,21, 0,15, 0.00,10.00,SummerDesignDay
8,21.799989308895414
10,5384443.534337821
671,0.0
708,11054737.028700399
2,1, 7,21, 0,15,10.00,20.00,SummerDesignDay
8,21.799989308895414
10,5384443.534337821
671,0.0
708,11198533.259630563
2,1, 7,21, 0,15,20.00,30.00,SummerDesignDay
8,21.799989308895414
10,5384443.534337821
671,0.0
708,11359038.788413093
2,1, 7,21, 0,15,30.00,40.00,SummerDesignDay
8,21.799989308895414
10,5384443.534337821
671,0.0
708,11515279.092248174
2,1, 7,21, 0,15,40.00,50.00,SummerDesignDay
8,21.799989308895414
10,5384443.534337821
671,0.0
708,11655714.963950992
2,1, 7,21, 0,15,50.00,60.00,SummerDesignDay
8,21.799989308895414
10,5384443.534337821
671,0.0
708,11780954.614376273
2,1, 7,21, 0,15, 0.00,60.00,SummerDesignDay
357,29.41207648218091
397,24.00000000000003
437,24.0
477,24.00000000000004
517,24.00000000000004
557,23.999999999999959
2,1, 7,21, 0,16, 0.00,10.00,SummerDesignDay
8,21.771094855856704
10,5384443.534337821
671,0.0
708,11872259.49226811
2,1, 7,21, 0,16,10.00,20.00,SummerDesignDay
8,21.742168014681356
10,5384443.534337821
671,0.0
708,11939714.805579652
2,1, 7,21, 0,16,20.00,30.00,SummerDesignDay
8,21.71320780280698
10,5384443.534337821
671,0.0
708,11987086.909293242
2,1, 7,21, 0,16,30.00,40.00,SummerDesignDay
8,21.68421463192507
10,5384443.534337821
671,0.0
708,12024844.554912797
2,1, 7,21, 0,16,40.00,50.00,SummerDesignDay
8,21.655184624488759
10,5384443.534337821
671,0.0
708,12053883.918244232
2,1, 7,21, 0,16,50.00,60.00,SummerDesignDay
8,21.6261256071541
10,5384443.534337821
671,0.0
708,12074819.497749068
2,1, 7,21, 0,16, 0.00,60.00,SummerDesignDay
357,29.22424470709166
397,24.000000000000044
437,23.999999999999984
477,23.999999999999984
517,23.999999999999987
557,23.999999999999998
2,1, 7,21, 0,17, 0.00,10.00,SummerDesignDay
8,21.587330220761357
10,5384443.534337821
671,0.0
708,12081404.598835988
2,1, 7,21, 0,17,10.00,20.00,SummerDesignDay
8,21.548471336507889
10,5384443.534337821
671,0.0
708,12074452.35395818
2,1, 7,21, 0,17,20.00,30.00,SummerDesignDay
8,21.509558190151649
10,5384443.534337821
671,0.0
708,12065162.899962517
2,1, 7,21, 0,17,30.00,40.00,SummerDesignDay
8,21.470581299934044
10,5384443.534337821
671,0.0
708,12051692.219020034
2,1, 7,21, 0,17,40.00,50.00,SummerDesignDay
8,21.431549204917386
10,5384443.534337821
671,0.0
708,12032092.382537503
2,1, 7,21, 0,17,50.00,60.00,SummerDesignDay
8,21.392452600030727
10,5384443.534337821
671,0.0
708,12005207.186211266
2,1, 7,21, 0,17, 0.00,60.00,SummerDesignDay
357,28.855773145779918
397,24.00000000000003
437,24.00000000000007
477,24.000000000000015
517,24.000000000000015
557,24.00000000000006
2,1, 7,21, 0,18, 0.00,10.00,SummerDesignDay
8,21.343500800253975
10,5016276.455066859
671,0.0
708,11601675.113535079
2,1, 7,21, 0,18,10.00,20.00,SummerDesignDay
8,21.29445517999728
10,5016276.455066859
671,0.0
708,11482614.869477977
2,1, 7,21, 0,18,20.00,30.00,SummerDesignDay
8,21.24531961332415
10,5016276.455066859
671,0.0
708,11374263.610394702
2,1, 7,21, 0,18,30.00,40.00,SummerDesignDay
8,21.196085706061159
10,5016276.455066859
671,0.0
708,11274645.509539733
2,1, 7,21, 0,18,40.00,50.00,SummerDesignDay
8,21.146756926413827
10,5016276.455066859
671,0.0
708,11182489.706541514
2,1, 7,21, 0,18,50.00,60.00,SummerDesignDay
8,21.097333755216899
10,5016276.455066859
671,0.0
708,11093754.744426964
2,1, 7,21, 0,18, 0.00,60.00,SummerDesignDay
357,28.340246785774736
397,24.000000000000033
437,24.0
477,24.000000000000055
517,23.999999999999987
557,24.000000000000058
2,1, 7,21, 0,19, 0.00,10.00,SummerDesignDay
8,21.023019732832933
10,2991357.519076566
671,0.0
708,9479174.18844613
2,1, 7,21, 0,19,10.00,20.00,SummerDesignDay
8,20.948490549703029
10,2991357.519076566
671,0.0
708,9211731.528570928
2,1, 7,21, 0,19,20.00,30.00,SummerDesignDay
8,20.873745184382885
10,2991357.519076566
671,0.0
708,8992062.738913799
2,1, 7,21, 0,19,30.00,40.00,SummerDesignDay
8,20.798782612519024
10,2991357.519076566
671,0.0
708,8769851.670661949
2,1, 7,21, 0,19,40.00,50.00,SummerDesignDay
8,20.723605634987398
10,2991357.519076566
671,0.0
708,8559210.451868955
2,1, 7,21, 0,19,50.00,60.00,SummerDesignDay
8,20.648205443782066
10,2991357.519076566
671,0.0
708,8348530.278364906
2,1, 7,21, 0,19, 0.00,60.00,SummerDesignDay
357,27.69460925161954
397,24.000000000000019
437,24.000000000000058
477,24.000000000000026
517,24.000000000000047
557,24.00000000000006
2,1, 7,21, 0,20, 0.00,10.00,SummerDesignDay
8,20.59277197915242
10,1462359.638864261
671,0.0
708,6998218.4329584049
2,1, 7,21, 0,20,10.00,20.00,SummerDesignDay
8,20.537219972964399
10,1462359.638864261
671,0.0
708,6603534.730634072
2,1, 7,21, 0,20,20.00,30.00,SummerDesignDay
8,20.48154799091199
10,1462359.638864261
671,0.0
708,6249530.280979461
2,1, 7,21, 0,20,30.00,40.00,SummerDesignDay
8,20.425752225515759
10,1462359.638864261
671,0.0
708,5890109.446232804
2,1, 7,21, 0,20,40.00,50.00,SummerDesignDay
8,20.369840248455387
10,1462359.638864261
671,0.0
708,5624933.129671702
2,1, 7,21, 0,20,50.00,60.00,SummerDesignDay
8,20.313807280186916
10,1462359.638864261
671,0.0
708,5410136.316218699
2,1, 7,21, 0,20, 0.00,60.00,SummerDesignDay
357,26.95553976371922
397,24.000000000000015
437,24.000000000000044
477,24.0
517,24.000000000000019
557,24.000000000000015
2,1, 7,21, 0,21, 0.00,10.00,SummerDesignDay
8,20.267875513679358
10,1462359.638864261
671,0.0
708,5232109.117009147
2,1, 7,21, 0,21,10.00,20.00,SummerDesignDay
8,20.221856772507928
10,1462359.638864261
671,0.0
708,5078616.074184664
2,1, 7,21, 0,21,20.00,30.00,SummerDesignDay
8,20.17575730066602
10,1462359.638864261
671,0.0
708,4943284.702912499
2,1, 7,21, 0,21,30.00,40.00,SummerDesignDay
8,20.129575525226004
10,1462359.638864261
671,0.0
708,4819579.594666156
2,1, 7,21, 0,21,40.00,50.00,SummerDesignDay
8,20.08331608345884
10,1462359.638864261
671,0.0
708,4704646.257277785
2,1, 7,21, 0,21,50.00,60.00,SummerDesignDay
8,20.03696962431749
10,1462359.638864261
671,0.0
708,4596450.227832794
2,1, 7,21, 0,21, 0.00,60.00,SummerDesignDay
357,26.412324869333238
397,24.000000000000019
437,24.000000000000019
477,24.00000000000001
517,24.00000000000001
557,24.000000000000019
2,1, 7,21, 0,22, 0.00,10.00,SummerDesignDay
8,19.99054090879275
10,717557.6374991046
671,0.0
708,0.0
2,1, 7,21, 0,22,10.00,20.00,SummerDesignDay
8,19.944033557607388
10,717557.6374991046
671,0.0
708,0.0
2,1, 7,21, 0,22,20.00,30.00,SummerDesignDay
8,19.89743885871503
10,717557.6374991046
671,0.0
708,0.0
2,1, 7,21, 0,22,30.00,40.00,SummerDesignDay
8,19.850760861623937
10,717557.6374991046
671,0.0
708,0.0
2,1, 7,21, 0,22,40.00,50.00,SummerDesignDay
8,19.804003776854694
10,717557.6374991046
671,0.0
708,0.0
2,1, 7,21, 0,22,50.00,60.00,SummerDesignDay
8,19.757157595162949
10,717557.6374991046
671,0.0
708,0.0
2,1, 7,21, 0,22, 0.00,60.00,SummerDesignDay
357,26.132307629401116
397,25.096758452836885
437,25.228113995644084
477,25.33241293356309
517,25.19762053553534
557,25.60816153892249
2,1, 7,21, 0,23, 0.00,10.00,SummerDesignDay
8,19.720666551636989
10,717557.6374991046
671,0.0
708,0.0
2,1, 7,21, 0,23,10.00,20.00,SummerDesignDay
8,19.684119477065886
10,717557.6374991046
671,0.0
708,0.0
2,1, 7,21, 0,23,20.00,30.00,SummerDesignDay
8,19.647526513618759
10,717557.6374991046
671,0.0
708,0.0
2,1, 7,21, 0,23,30.00,40.00,SummerDesignDay
8,19.6108822727292
10,717557.6374991046
671,0.0
708,0.0
2,1, 7,21, 0,23,40.00,50.00,SummerDesignDay
8,19.574181717726309
10,717557.6374991046
671,0.0
708,0.0
2,1, 7,21, 0,23,50.00,60.00,SummerDesignDay
8,19.537434025172329
10,717557.6374991046
671,0.0
708,0.0
2,1, 7,21, 0,23, 0.00,60.00,SummerDesignDay
357,25.870172802318817
397,25.631669373775226
437,25.698778900426693
477,25.826916375057058
517,25.66098170538845
557,26.197112544321567
2,1, 7,21, 0,24, 0.00,10.00,SummerDesignDay
8,19.50063519373203
10,588883.2432939032
671,0.0
708,0.0
2,1, 7,21, 0,24,10.00,20.00,SummerDesignDay
8,19.463780045562748
10,588883.2432939032
671,0.0
708,0.0
2,1, 7,21, 0,24,20.00,30.00,SummerDesignDay
8,19.42687776521098
10,588883.2432939032
671,0.0
708,0.0
2,1, 7,21, 0,24,30.00,40.00,SummerDesignDay
8,19.389928824990219
10,588883.2432939032
671,0.0
708,0.0
2,1, 7,21, 0,24,40.00,50.00,SummerDesignDay
8,19.352911582935034
10,588883.2432939032
671,0.0
708,0.0
2,1, 7,21, 0,24,50.00,60.00,SummerDesignDay
8,19.31585289854638
10,588883.2432939032
671,0.0
708,0.0
2,1, 7,21, 0,24, 0.00,60.00,SummerDesignDay
357,25.667917142707286
397,25.465979529849326
437,25.502961441959675
477,25.63936532499773
517,25.47204535664878
557,25.996015349580916
3,1, 7,21, 0,SummerDesignDay
358,57.79720692056977,49.830368831729469,15,10,65.29529487170005, 5,50
398,54.02830353741655,43.713734157331249,19,10,68.13045406601852, 7, 4
438,52.87740351779119,42.88646755176397,14,50,68.09612000129846, 7, 4
478,50.145037978322687,42.213569487022358, 9,10,65.96805702592555, 7, 2
518,52.96293628012481,43.060683265730798,19,60,67.87953220648574, 7, 2
558,51.3727686137784,41.944141052508339,19,40,67.8908834628102, 7, 4
4,1, 7
7,25.183875000000005,20.5,21, 5,60,30.6,21,14,60
1,OTTAWA=MACDONALD-CARTIER INTL ANN HTG 99.6% CONDNS DB,  45.32, -75.67,  -5.00, 114.90
2,1, 1,21, 0, 1, 0.00,10.00,WinterDesignDay
8,-24.2
10,588883.2432939032
671,9727086.19571116
708,0.0
2,1, 1,21, 0, 1,10.00,20.00,WinterDesignDay
8,-24.2
10,588883.2432939032
671,9786379.472275703
708,0.0
2,1, 1,21, 0, 1,20.00,30.00,WinterDesignDay
8,-24.2
10,588883.2432939032
671,9843662.554940306
708,0.0
2,1, 1,21, 0, 1,30.00,40.00,WinterDesignDay
8,-24.2
10,588883.2432939032
671,9899242.774167519
708,0.0
2,1, 1,21, 0, 1,40.00,50.00,WinterDesignDay
8,-24.2
10,588883.2432939032
671,9953365.749301915
708,0.0
2,1, 1,21, 0, 1,50.00,60.00,WinterDesignDay
8,-24.2
10,588883.2432939032
671,10006228.481748868
708,0.0
2,1, 1,21, 0, 1, 0.00,60.00,WinterDesignDay
357,11.257401693984166
397,18.0
437,17.999999999999998
477,17.999999999999994
517,17.999999999999984
557,17.999999999999984
2,1, 1,21, 0, 2, 0.00,10.00,WinterDesignDay
8,-24.2
10,588883.2432939032
671,10057986.746928495
708,0.0
2,1, 1,21, 0, 2,10.00,20.00,WinterDesignDay
8,-24.2
10,588883.2432939032
671,10108763.386255546
708,0.0
2,1, 1,21, 0, 2,20.00,30.00,WinterDesignDay
8,-24.2
10,588883.2432939032
671,10158656.254076716
708,0.0
2,1, 1,21, 0, 2,30.00,40.00,WinterDesignDay
8,-24.2
10,588883.2432939032
671,10207743.319236437
708,0.0
2,1, 1,21, 0, 2,40.00,50.00,WinterDesignDay
8,-24.2
10,588883.2432939032
671,10256087.46728352
708,0.0
2,1, 1,21, 0, 2,50.00,60.00,WinterDesignDay
8,-24.2
10,588883.2432939032
671,10303735.849969082
708,0.0
2,1, 1,21, 0, 2, 0.00,60.00,WinterDesignDay
357,11.048117404219042
397,18.0
437,18.000000000000008
477,18.00000000000001
517,17.999999999999959
557,18.0
2,1, 1,21, 0, 3, 0.00,10.00,WinterDesignDay
8,-24.2
10,588883.2432939032
671,10350727.027422334
708,0.0
2,1, 1,21, 0, 3,10.00,20.00,WinterDesignDay
8,-24.2
10,588883.2432939032
671,10397091.49805253
708,0.0
2,1, 1,21, 0, 3,20.00,30.00,WinterDesignDay
8,-24.2
10,588883.2432939032
671,10442853.415928375
708,0.0
2,1, 1,21, 0, 3,30.00,40.00,WinterDesignDay
8,-24.2
10,588883.2432939032
671,10488031.959721355
708,0.0
2,1, 1,21, 0, 3,40.00,50.00,WinterDesignDay
8,-24.2
10,588883.2432939032
671,10532642.42549463
708,0.0
2,1, 1,21, 0, 3,50.00,60.00,WinterDesignDay
8,-24.2
10,588883.2432939032
671,10576697.748628512
708,0.0
2,1, 1,21, 0, 3, 0.00,60.00,WinterDesignDay
357,10.853825975688358
397,17.999999999999998
437,18.000000000000026
477,18.000000000000019
517,18.000000000000005
557,18.00000000000002
2,1, 1,21, 0, 4, 0.00,10.00,WinterDesignDay
8,-24.2
10,588883.2432939032
671,10620207.071832825
708,0.0
2,1, 1,21, 0, 4,10.00,20.00,WinterDesignDay
8,-24.2
10,588883.2432939032
671,10663178.554703897
708,0.0
2,1, 1,21, 0, 4,20.00,30.00,WinterDesignDay
8,-24.2
10,588883.2432939032
671,10705618.990295284
708,0.0
2,1, 1,21, 0, 4,30.00,40.00,WinterDesignDay
8,-24.2
10,588883.2432939032
671,10747534.140757785
708,0.0
2,1, 1,21, 0, 4,40.00,50.00,WinterDesignDay
8,-24.2
10,588883.2432939032
671,10788929.000777243
708,0.0
2,1, 1,21, 0, 4,50.00,60.00,WinterDesignDay
8,-24.2
10,588883.2432939032
671,10829808.003726168
708,0.0
2,1, 1,21, 0, 4, 0.00,60.00,WinterDesignDay
357,10.674845417216446
397,17.999999999999994
437,18.0
477,18.0
517,18.000000000000005
557,18.000000000000008
2,1, 1,21, 0, 5, 0.00,10.00,WinterDesignDay
8,-24.2
10,588883.2432939032
671,10870175.182237706
708,0.0
2,1, 1,21, 0, 5,10.00,20.00,WinterDesignDay
8,-24.2
10,588883.2432939032
671,10910000.968064568
708,0.0
2,1, 1,21, 0, 5,20.00,30.00,WinterDesignDay
8,-24.2
10,588883.2432939032
671,10949361.625309837
708,0.0
2,1, 1,21, 0, 5,30.00,40.00,WinterDesignDay
8,-24.2
10,588883.2432939032
671,10988189.223647394
708,0.0
2,1, 1,21, 0, 5,40.00,50.00,WinterDesignDay
8,-24.2
10,588883.2432939032
671,11026519.1522965
708,0.0
2,1, 1,21, 0, 5,50.00,60.00,WinterDesignDay
8,-24.2
10,588883.2432939032
671,11064360.829614234
708,0.0
2,1, 1,21, 0, 5, 0.00,60.00,WinterDesignDay
357,10.511106544973347
397,17.99999999999999
437,18.000000000000015
477,17.99999999999999
517,18.000000000000015
557,18.000000000000015
2,1, 1,21, 0, 6, 0.00,10.00,WinterDesignDay
8,-24.2
10,588883.2432939032
671,11101711.711971114
708,0.0
2,1, 1,21, 0, 6,10.00,20.00,WinterDesignDay
8,-24.2
10,588883.2432939032
671,11138574.989351964
708,0.0
2,1, 1,21, 0, 6,20.00,30.00,WinterDesignDay
8,-24.2
10,588883.2432939032
671,11174954.107385479
708,0.0
2,1, 1,21, 0, 6,30.00,40.00,WinterDesignDay
8,-24.2
10,588883.2432939032
671,11210852.767722268
708,0.0
2,1, 1,21, 0, 6,40.00,50.00,WinterDesignDay
8,-24.2
10,588883.2432939032
671,11246274.813133693
708,0.0
2,1, 1,21, 0, 6,50.00,60.00,WinterDesignDay
8,-24.2
10,588883.2432939032
671,11281224.148189258
708,0.0
2,1, 1,21, 0, 6, 0.00,60.00,WinterDesignDay
357,10.361320935956103
397,17.999999999999998
437,18.000000000000037
477,17.999999999999998
517,18.000000000000005
557,18.000000000000015
2,1, 1,21, 0, 7, 0.00,10.00,WinterDesignDay
8,-24.2
10,588883.2432939032
671,19297229.6425118
708,0.0
2,1, 1,21, 0, 7,10.00,20.00,WinterDesignDay
8,-24.2
10,588883.2432939032
671,11519342.072922886
708,0.0
2,1, 1,21, 0, 7,20.00,30.00,WinterDesignDay
8,-24.2
10,588883.2432939032
671,17138178.752275815
708,0.0
2,1, 1,21, 0, 7,30.00,40.00,WinterDesignDay
8,-24.2
10,588883.2432939032
671,15520892.667774657
708,0.0
2,1, 1,21, 0, 7,40.00,50.00,WinterDesignDay
8,-24.2
10,588883.2432939032
671,15394002.541692246
708,0.0
2,1, 1,21, 0, 7,50.00,60.00,WinterDesignDay
8,-24.2
10,588883.2432939032
671,15276414.25434737
708,0.0
2,1, 1,21, 0, 7, 0.00,60.00,WinterDesignDay
357,10.232319247840012
397,20.0159677995081
437,20.004935613004127
477,20.00440723577782
517,20.005360029280629
557,20.004331406822819
2,1, 1,21, 0, 8, 0.00,10.00,WinterDesignDay
8,-24.2
10,1462359.638864261
671,23285230.044963935
708,0.0
2,1, 1,21, 0, 8,10.00,20.00,WinterDesignDay
8,-24.2
10,1462359.638864261
671,15524983.824676544
708,0.0
2,1, 1,21, 0, 8,20.00,30.00,WinterDesignDay
8,-24.2
10,1462359.638864261
671,20586461.59432178
708,0.0
2,1, 1,21, 0, 8,30.00,40.00,WinterDesignDay
8,-24.2
10,1462359.638864261
671,18955169.29199974
708,0.0
2,1, 1,21, 0, 8,40.00,50.00,WinterDesignDay
8,-24.2
10,1462359.638864261
671,18682122.631917288
708,0.0
2,1, 1,21, 0, 8,50.00,60.00,WinterDesignDay
8,-24.2
10,1462359.638864261
671,18461749.837626716
708,0.0
2,1, 1,21, 0, 8, 0.00,60.00,WinterDesignDay
357,10.184144704504565
397,22.006583074118735
437,22.000071374920766
477,21.999340639585499
517,22.0004993846496
557,21.999261719705858
2,1, 1,21, 0, 9, 0.00,10.00,WinterDesignDay
8,-24.2
10,4786172.030522507
671,16219810.191088509
708,0.0
2,1, 1,21, 0, 9,10.00,20.00,WinterDesignDay
8,-24.2
10,4786172.030522507
671,15872651.113711335
708,0.0
2,1, 1,21, 0, 9,20.00,30.00,WinterDesignDay
8,-24.2
10,4786172.030522507
671,15638285.806523119
708,0.0
2,1, 1,21, 0, 9,30.00,40.00,WinterDesignDay
8,-24.2
10,4786172.030522507
671,15445457.224166777
708,0.0
2,1, 1,21, 0, 9,40.00,50.00,WinterDesignDay
8,-24.2
10,4786172.030522507
671,15284760.161818508
708,0.0
2,1, 1,21, 0, 9,50.00,60.00,WinterDesignDay
8,-24.2
10,4786172.030522507
671,15147054.618354753
708,0.0
2,1, 1,21, 0, 9, 0.00,60.00,WinterDesignDay
357,10.275248913804214
397,22.00000000000001
437,22.000000000000033
477,22.000000000000047
517,21.99999999999999
557,22.000000000000026
2,1, 1,21, 0,10, 0.00,10.00,WinterDesignDay
8,-24.2
10,5384443.534337821
671,14569679.409903735
708,0.0