Program Version,EnergyPlus, Version 8.9.0-eba93e8e1b, YMD=2019.05.01 16:03
1,5,Environment Title[],Latitude[deg],Longitude[deg],Time Zone[],Elevation[m]
2,8,Day of Simulation[],Month[],Day of Month[],DST Indicator[1=yes 0=no],Hour[],StartMinute[],EndMinute[],DayType
3,5,Cumulative Day of Simulation[],Month[],Day of Month[],DST Indicator[1=yes 0=no],DayType  ! When Daily Report Variables Requested
4,2,Cumulative Days of Simulation[],Month[]  ! When Monthly Report Variables Requested
5,1,Cumulative Days of Simulation[] ! When Run Period Report Variables Requested
6,1,Calendar Year of Simulation[] ! When Annual Report Variables Requested
7,9,Environment,Site Outdoor Air Drybulb Temperature [C] !Monthly [Value,Min,Day,Hour,Minute,Max,Day,Hour,Minute]
8,1,Environment,Site Outdoor Air Wetbulb Temperature [C] !TimeStep
1201,1,SP-STORY 1 EAST CORE SPACE SYS-3 FLR-1 SCH-A HPLCMT-CORE ZN,Zone Air Temperature [C] !Hourly
1202,7,SP-STORY 1 EAST CORE SPACE SYS-3 FLR-1 SCH-A HPLCMT-CORE ZN,Zone Air Relative Humidity [%] !Daily [Value,Min,Hour,Minute,Max,Hour,Minute]
1241,1,SP-STORY 1 EAST LEFT PERIMETER SPACE SYS-3 FLR-1 SCH-A HPLCMT-EAST ZN,Zone Air Temperature [C] !Hourly
1242,7,SP-STORY 1 EAST LEFT PERIMETER SPACE SYS-3 FLR-1 SCH-A HPLCMT-EAST ZN,Zone Air Relative Humidity [%] !Daily [Value,Min,Hour,Minute,Max,Hour,Minute]
1281,1,SP-STORY 1 EAST RIGHT PERIMETER SPACE SYS-3 FLR-1 SCH-A HPLCMT-EAST ZN,Zone Air Temperature [C] !Hourly
1282,7,SP-STORY 1 EAST RIGHT PERIMETER SPACE SYS-3 FLR-1 SCH-A HPLCMT-EAST ZN,Zone Air Relative Humidity [%] !Daily [Value,Min,Hour,Minute,Max,Hour,Minute]
1321,1,SP-STORY 1 NORTH LEFT PERIMETER SPACE SYS-3 FLR-1 SCH-A HPLCMT-NORTH ZN,Zone Air Temperature [C] !Hourly
1322,7,SP-STORY 1 NORTH LEFT PERIMETER SPACE SYS-3 FLR-1 SCH-A HPLCMT-NORTH ZN,Zone Air Relative Humidity [%] !Daily [Value,Min,Hour,Minute,Max,Hour,Minute]
1361,1,SP-STORY 1 NORTH LOWER PERIMETER SPACE SYS-3 FLR-1 SCH-A HPLCMT-NORTH ZN,Zone Air Temperature [C] !Hourly
1362,7,SP-STORY 1 NORTH LOWER PERIMETER SPACE SYS-3 FLR-1 SCH-A HPLCMT-NORTH ZN,Zone Air Relative Humidity [%] !Daily [Value,Min,Hour,Minute,Max,Hour,Minute]
1401,1,SP-STORY 1 NORTH RIGHT PERIMETER SPACE SYS-3 FLR-1 SCH-A HPLCMT-NORTH ZN,Zone Air Temperature [C] !Hourly
1402,7,SP-STORY 1 NORTH RIGHT PERIMETER SPACE SYS-3 FLR-1 SCH-A HPLCMT-NORTH ZN,Zone Air Relative Humidity [%] !Daily [Value,Min,Hour,Minute,Max,Hour,Minute]
1441,1,SP-STORY 1 SOUTH CORE SPACE SYS-3 FLR-1 SCH-A HPLCMT-CORE ZN,Zone Air Temperature [C] !Hourly
1442,7,SP-STORY 1 SOUTH CORE SPACE SYS-3 FLR-1 SCH-A HPLCMT-CORE ZN,Zone Air Relative Humidity [%] !Daily [Value,Min,Hour,Minute,Max,Hour,Minute]
1481,1,SP-STORY 1 SOUTH LOWER PERIMETER SPACE SYS-3 FLR-1 SCH-A HPLCMT-SOUTH ZN,Zone Air Temperature [C] !Hourly
1482,7,SP-STORY 1 SOUTH LOWER PERIMETER SPACE SYS-3 FLR-1 SCH-A HPLCMT-SOUTH ZN,Zone Air Relative Humidity [%] !Daily [Value,Min,Hour,Minute,Max,Hour,Minute]
1521,1,SP-STORY 1 WEST CORE SPACE SYS-3 FLR-1 SCH-A HPLCMT-CORE ZN,Zone Air Temperature [C] !Hourly
1522,7,SP-STORY 1 WEST CORE SPACE SYS-3 FLR-1 SCH-A HPLCMT-CORE ZN,Zone Air Relative Humidity [%] !Daily [Value,Min,Hour,Minute,Max,Hour,Minute]
1561,1,SP-STORY 1 WEST LEFT PERIMETER SPACE SYS-3 FLR-1 SCH-A HPLCMT-WEST ZN,Zone Air Temperature [C] !Hourly
1562,7,SP-STORY 1 WEST LEFT PERIMETER SPACE SYS-3 FLR-1 SCH-A HPLCMT-WEST ZN,Zone Air Relative Humidity [%] !Daily [Value,Min,Hour,Minute,Max,Hour,Minute]
1601,1,SP-STORY 1 WEST RIGHT PERIMETER SPACE SYS-3 FLR-1 SCH-A HPLCMT-WEST ZN,Zone Air Temperature [C] !Hourly
1602,7,SP-STORY 1 WEST RIGHT PERIMETER SPACE SYS-3 FLR-1 SCH-A HPLCMT-WEST ZN,Zone Air Relative Humidity [%] !Daily [Value,Min,Hour,Minute,Max,Hour,Minute]
1641,1,SP-STORY 2 EAST CORE SPACE SYS-3 FLR-2 SCH-A HPLCMT-CORE ZN,Zone Air Temperature [C] !Hourly
1642,7,SP-STORY 2 EAST CORE SPACE SYS-3 FLR-2 SCH-A HPLCMT-CORE ZN,Zone Air Relative Humidity [%] !Daily [Value,Min,Hour,Minute,Max,Hour,Minute]
1681,1,SP-STORY 2 EAST LEFT PERIMETER SPACE SYS-3 FLR-2 SCH-A HPLCMT-EAST ZN,Zone Air Temperature [C] !Hourly
1682,7,SP-STORY 2 EAST LEFT PERIMETER SPACE SYS-3 FLR-2 SCH-A HPLCMT-EAST ZN,Zone Air Relative Humidity [%] !Daily [Value,Min,Hour,Minute,Max,Hour,Minute]
1721,1,SP-STORY 2 EAST RIGHT PERIMETER SPACE SYS-3 FLR-2 SCH-A HPLCMT-EAST ZN,Zone Air Temperature [C] !Hourly
1722,7,SP-STORY 2 EAST RIGHT PERIMETER SPACE SYS-3 FLR-2 SCH-A HPLCMT-EAST ZN,Zone Air Relative Humidity [%] !Daily [Value,Min,Hour,Minute,Max,Hour,Minute]
1761,1,SP-STORY 2 NORTH LEFT PERIMETER SPACE SYS-3 FLR-2 SCH-A HPLCMT-NORTH ZN,Zone Air Temperature [C] !Hourly
1762,7,SP-STORY 2 NORTH LEFT PERIMETER SPACE SYS-3 FLR-2 SCH-A HPLCMT-NORTH ZN,Zone Air Relative Humidity [%] !Daily [Value,Min,Hour,Minute,Max,Hour,Minute]
1801,1,SP-STORY 2 NORTH LOWER PERIMETER SPACE SYS-3 FLR-2 SCH-A HPLCMT-NORTH ZN,Zone Air Temperature [C] !Hourly
1802,7,SP-STORY 2 NORTH LOWER PERIMETER SPACE SYS-3 FLR-2 SCH-A HPLCMT-NORTH ZN,Zone Air Relative Humidity [%] !Daily [Value,Min,Hour,Minute,Max,Hour,Minute]
1841,1,SP-STORY 2 NORTH RIGHT PERIMETER SPACE SYS-3 FLR-2 SCH-A HPLCMT-NORTH ZN,Zone Air Temperature [C] !Hourly
1842,7,SP-STORY 2 NORTH RIGHT PERIMETER SPACE SYS-3 FLR-2 SCH-A HPLCMT-NORTH ZN,Zone Air Relative Humidity [%] !Daily [Value,Min,Hour,Minute,Max,Hour,Minute]
1881,1,SP-STORY 2 SOUTH CORE SPACE SYS-3 FLR-2 SCH-A HPLCMT-CORE ZN,Zone Air Temperature [C] !Hourly
1882,7,SP-STORY 2 SOUTH CORE SPACE SYS-3 FLR-2 SCH-A HPLCMT-CORE ZN,Zone Air Relative Humidity [%] !Daily [Value,Min,Hour,Minute,Max,Hour,Minute]
1921,1,SP-STORY 2 SOUTH LOWER PERIMETER SPACE SYS-3 FLR-2 SCH-A HPLCMT-SOUTH ZN,Zone Air Temperature [C] !Hourly
1922,7,SP-STORY 2 SOUTH LOWER PERIMETER SPACE SYS-3 FLR-2 SCH-A HPLCMT-SOUTH ZN,Zone Air Relative Humidity [%] !Daily [Value,Min,Hour,Minute,Max,Hour,Minute]
1961,1,SP-STORY 2 WEST CORE SPACE SYS-3 FLR-2 SCH-A HPLCMT-CORE ZN,Zone Air Temperature [C] !Hourly
1962,7,SP-STORY 2 WEST CORE SPACE SYS-3 FLR-2 SCH-A HPLCMT-CORE ZN,Zone Air Relative Humidity [%] !Daily [Value,Min,Hour,Minute,Max,Hour,Minute]
2001,1,SP-STORY 2 WEST LEFT PERIMETER SPACE SYS-3 FLR-2 SCH-A HPLCMT-WEST ZN,Zone Air Temperature [C] !Hourly
2002,7,SP-STORY 2 WEST LEFT PERIMETER SPACE SYS-3 FLR-2 SCH-A HPLCMT-WEST ZN,Zone Air Relative Humidity [%] !Daily [Value,Min,Hour,Minute,Max,Hour,Minute]
2041,1,SP-STORY 2 WEST RIGHT PERIMETER SPACE SYS-3 FLR-2 SCH-A HPLCMT-WEST ZN,Zone Air Temperature [C] !Hourly
2042,7,SP-STORY 2 WEST RIGHT PERIMETER SPACE SYS-3 FLR-2 SCH-A HPLCMT-WEST ZN,Zone Air Relative Humidity [%] !Daily [Value,Min,Hour,Minute,Max,Hour,Minute]
10,1,Electricity:Facility [J] !TimeStep
967,1,Gas:Facility [J] !TimeStep
End of Data Dictionary
1,OTTAWA=MACDONALD-CARTIER INTL ANN CLG .4% CONDNS DB=>MWB,  45.32, -75.67,  -5.00, 114.90
2,1, 7,21, 0, 1, 0.00,10.00,SummerDesignDay
8,19.2840458690032
10,82182437.91191677
967,12000.0
2,1, 7,21, 0, 1,10.00,20.00,SummerDesignDay
8,19.25220058801155
10,81594291.02067499
967,3486885.6209878565
2,1, 7,21, 0, 1,20.00,30.00,SummerDesignDay
8,19.2203165671003
10,82182437.91191677
967,12000.0
2,1, 7,21, 0, 1,30.00,40.00,SummerDesignDay
8,19.188388626363016
10,82182437.91191677
967,12000.0
2,1, 7,21, 0, 1,40.00,50.00,SummerDesignDay
8,19.15642770709394
10,82182437.91191677
967,12000.0
2,1, 7,21, 0, 1,50.00,60.00,SummerDesignDay
8,19.124427397166604
10,82182437.91191677
967,17372998.951480874
2,1, 7,21, 0, 1, 0.00,60.00,SummerDesignDay
1201,26.5886442623176
1241,29.398186831165714
1281,29.54499757807187
1321,26.683545128414253
1361,26.456671057240869
1401,26.670143272783084
1441,26.322695645083035
1481,27.694188017858939
1521,26.510252525248459
1561,31.000389496275603
1601,30.79745888986824
1641,26.912977857171638
1681,29.21694361608284
1721,29.299446398985415
1761,26.987283075782615
1801,26.83672788380387
1841,26.968180330266209
1881,26.748533712726084
1921,27.921283056765835
1961,26.98134488768224
2001,30.259649027499976
2041,30.12731754758893
2,1, 7,21, 0, 2, 0.00,10.00,SummerDesignDay
8,19.103070457286994
10,82182437.91191677
967,12000.0
2,1, 7,21, 0, 2,10.00,20.00,SummerDesignDay
8,19.08170119193842
10,82182437.91191677
967,12000.0
2,1, 7,21, 0, 2,20.00,30.00,SummerDesignDay
8,19.06030939273045
10,82182437.91191677
967,12000.0
2,1, 7,21, 0, 2,30.00,40.00,SummerDesignDay
8,19.03890076386851
10,82182437.91191677
967,12000.0
2,1, 7,21, 0, 2,40.00,50.00,SummerDesignDay
8,19.01747444558601
10,82232332.72578679
967,6927045.3017841479
2,1, 7,21, 0, 2,50.00,60.00,SummerDesignDay
8,18.996036037989819
10,82291774.0301659
967,11651902.995230133
2,1, 7,21, 0, 2, 0.00,60.00,SummerDesignDay
1201,26.54780450701107
1241,29.3820091018212
1281,29.531242179851124
1321,26.573705893400235
1361,26.3596212712831
1401,26.56598801184425
1441,26.262332375292688
1481,27.584726619926646
1521,26.287343101852004
1561,30.954571297282674
1601,30.756554317470088
1641,26.85631787132719
1681,29.20270026434315
1721,29.28440086278569
1761,26.91895976390958
1801,26.764962041221464
1841,26.89615709824462
1881,26.67055822276586
1921,27.88201201191633
1961,26.917556225172523
2001,30.233543025202868
2041,30.102210632333138
2,1, 7,21, 0, 3, 0.00,10.00,SummerDesignDay
8,18.97994058577143
10,82291774.0301659
967,12000.0
2,1, 7,21, 0, 3,10.00,20.00,SummerDesignDay
8,18.96383509390068
10,82351215.33454502
967,12000.0
2,1, 7,21, 0, 3,20.00,30.00,SummerDesignDay
8,18.947724870466826
10,82460551.45279417
967,12000.0
2,1, 7,21, 0, 3,30.00,40.00,SummerDesignDay
8,18.931599991201066
10,82460551.45279417
967,12000.0
2,1, 7,21, 0, 3,40.00,50.00,SummerDesignDay
8,18.915470425479847
10,82460551.45279417
967,17431185.22596986
2,1, 7,21, 0, 3,50.00,60.00,SummerDesignDay
8,18.8993255989201
10,82460551.45279417
967,12000.0
2,1, 7,21, 0, 3, 0.00,60.00,SummerDesignDay
1201,26.500709314509284
1241,29.33649476096763
1281,29.495960109338247
1321,26.446248048349078
1361,26.25819187658365
1401,26.450939113288525
1441,26.203660520021676
1481,27.471050183655863
1521,26.238315107092054
1561,30.89409312139477
1601,30.704645297984898
1641,26.797896523543036
1681,29.17932364251037
1721,29.260950305195708
1761,26.8079460673256
1801,26.656560562725873
1841,26.78440826421097
1881,26.601342403167576
1921,27.82510442479762
1961,26.854519225742519
2001,30.19864875723464
2041,30.068437914497954
2,1, 7,21, 0, 4, 0.00,10.00,SummerDesignDay
8,18.883176400800605
10,82460551.45279417
967,12000.0
2,1, 7,21, 0, 4,10.00,20.00,SummerDesignDay
8,18.867011710849643
10,82460551.45279417
967,12000.0
2,1, 7,21, 0, 4,20.00,30.00,SummerDesignDay
8,18.850837592647797
10,82460551.45279417
967,12000.0
2,1, 7,21, 0, 4,30.00,40.00,SummerDesignDay
8,18.834658360362007
10,82460551.45279417
967,12000.0
2,1, 7,21, 0, 4,40.00,50.00,SummerDesignDay
8,18.8184648850153
10,82460551.45279417
967,17240852.704137327
2,1, 7,21, 0, 4,50.00,60.00,SummerDesignDay
8,18.8022655410338
10,82460551.45279417
967,12000.0
2,1, 7,21, 0, 4, 0.00,60.00,SummerDesignDay
1201,26.454887817212069
1241,29.270430232835769
1281,29.43493614278978
1321,26.323022679732405
1361,26.156699677421725
1401,26.335496234321327
1441,26.147606907340305
1481,27.358514336808957
1521,26.20716498935631
1561,30.772915868069889
1601,30.596961930341029
1641,26.74115006521623
1681,29.152910607741786
1721,29.235025205280939
1761,26.68077604033338
1801,26.536017197412418
1841,26.658392139983638
1881,26.536346105057544
1921,27.72425194539447
1961,26.792615709687128
2001,30.16207891082286
2041,30.03298441592949
2,1, 7,21, 0, 5, 0.00,10.00,SummerDesignDay
8,18.79145567867417
10,82460551.45279417
967,12000.0
2,1, 7,21, 0, 5,10.00,20.00,SummerDesignDay
8,18.780646332866213
10,82460551.45279417
967,12000.0
2,1, 7,21, 0, 5,20.00,30.00,SummerDesignDay
8,18.76983296444122
10,82460551.45279417
967,12000.0
2,1, 7,21, 0, 5,30.00,40.00,SummerDesignDay
8,18.75901007085189
10,82460551.45279417
967,17484989.62546276
2,1, 7,21, 0, 5,40.00,50.00,SummerDesignDay
8,18.7481869937485
10,82401110.14841506
967,12000.0
2,1, 7,21, 0, 5,50.00,60.00,SummerDesignDay
8,18.737365749092537
10,82351215.33454503
967,12000.0
2,1, 7,21, 0, 5, 0.00,60.00,SummerDesignDay
1201,26.409786113171977
1241,29.240041959280917
1281,29.474240265459018
1321,26.28320515119685
1361,26.07021060756189
1401,26.299795442301215
1441,26.092846912609376
1481,27.264196626270324
1521,26.177884541943283
1561,30.636895058765306
1601,30.470950901777078
1641,26.695230749453445
1681,29.196715232683606
1721,29.324130114749157
1761,26.6337807701201
1801,26.43824571740312
1841,26.613709319709316
1881,26.481482034845575
1921,27.63002630068742
1961,26.741290945685408
2001,30.141150085041855
2041,30.012841953700165
2,1, 7,21, 0, 6, 0.00,10.00,SummerDesignDay
8,18.7481869937485
10,82337089.10798364
967,12000.0
2,1, 7,21, 0, 6,10.00,20.00,SummerDesignDay
8,18.75901007085189
10,82275444.61554696
967,12000.0
2,1, 7,21, 0, 6,20.00,30.00,SummerDesignDay
8,18.76983296444122
10,82194870.45703523
967,12000.0
2,1, 7,21, 0, 6,30.00,40.00,SummerDesignDay
8,18.780646332866213
10,82202561.85174668
967,16825763.40955796
2,1, 7,21, 0, 6,40.00,50.00,SummerDesignDay
8,18.79145567867417
10,82182437.91191677
967,12000.0
2,1, 7,21, 0, 6,50.00,60.00,SummerDesignDay
8,18.8022655410338
10,82199406.23678756
967,12000.0
2,1, 7,21, 0, 6, 0.00,60.00,SummerDesignDay
1201,26.41761672129277
1241,30.585962837241998
1281,31.211161592205895
1321,27.133212145219944
1361,26.215949550574455
1401,27.160104109571404
1441,26.05780976069182
1481,27.392503832201276
1521,26.17182054114296
1561,30.65009015513874
1601,30.48088430728339
1641,26.85093183772129
1681,30.885474793578856
1721,31.01531640137851
1761,27.579046057667794
1801,26.96569686053005
1841,27.566619573333428
1881,26.569645441774005
1921,27.790945693072076
1961,26.871744783164755
2001,30.252950442937708
2041,30.125018574508798
2,1, 7,21, 0, 7, 0.00,10.00,SummerDesignDay
8,18.840052605786814
10,205916493.2087034
967,833460.0692523525
2,1, 7,21, 0, 7,10.00,20.00,SummerDesignDay
8,18.87778619489805
10,176087852.9985409
967,12000.0
2,1, 7,21, 0, 7,20.00,30.00,SummerDesignDay
8,18.915470425479847
10,160629403.67498435
967,11145377.19394552
2,1, 7,21, 0, 7,30.00,40.00,SummerDesignDay
8,18.953096118062495
10,135608030.65516795
967,6670649.9034369899
2,1, 7,21, 0, 7,40.00,50.00,SummerDesignDay
8,18.99066883495391
10,140806263.1190402
967,12000.0
2,1, 7,21, 0, 7,50.00,60.00,SummerDesignDay
8,19.02819215483863
10,138945312.547272
967,12000.0
2,1, 7,21, 0, 7, 0.00,60.00,SummerDesignDay
1201,24.266706104262729
1241,24.24548358724586
1281,24.25717387884165
1321,24.13603563212837
1361,24.060948671062105
1401,24.139514908376403
1441,24.159188030100827
1481,24.027783961959228
1521,24.18420897676387
1561,24.072725811011968
1601,24.071655955126219
1641,24.169866423958287
1681,24.246390665667879
1721,24.249390815406085
1761,24.15561643539813
1801,24.107680171535305
1841,24.155110382829407
1881,24.12308011887345
1921,24.021130548129375
1961,24.161214524010366
2001,24.050174896451794
2041,24.048086932706565
2,1, 7,21, 0, 8, 0.00,10.00,SummerDesignDay
8,19.119090922986229
10,189518820.01586334
967,12000.0
2,1, 7,21, 0, 8,10.00,20.00,SummerDesignDay
8,19.209676482065853
10,194215594.24249087
967,18081318.706219894
2,1, 7,21, 0, 8,20.00,30.00,SummerDesignDay
8,19.299951906634847
10,203065429.503033
967,12000.0
2,1, 7,21, 0, 8,30.00,40.00,SummerDesignDay
8,19.389928824990219
10,207056867.79619194
967,12000.0
2,1, 7,21, 0, 8,40.00,50.00,SummerDesignDay
8,19.4795823892733
10,209255132.38933159
967,18116167.660409195
2,1, 7,21, 0, 8,50.00,60.00,SummerDesignDay
8,19.568935475929295
10,210089405.47416864
967,12000.0
2,1, 7,21, 0, 8, 0.00,60.00,SummerDesignDay
1201,23.99954686468969
1241,23.999216965991264
1281,23.999316307336078
1321,23.99944702988958
1361,23.999596302822515
1401,23.999439165773695
1441,23.999701713771687
1481,24.000064781123855
1521,23.999537702516695
1561,24.00014237090988
1601,24.0001298891488
1641,23.999376987110407
1681,23.99857027221947
1721,23.998610400390267
1761,23.999137628737058
1801,23.9992664702806
1841,23.999130027485973
1881,23.99960805899084
1921,24.000064807332366
1961,23.999425149940096
2001,24.000059624091077
2041,24.00004426272395
2,1, 7,21, 0, 9, 0.00,10.00,SummerDesignDay
8,19.66844507688812
10,336549443.8431933
967,26668029.36137541
2,1, 7,21, 0, 9,10.00,20.00,SummerDesignDay
8,19.767573179707669
10,341071195.32164779
967,28308375.342250699
2,1, 7,21, 0, 9,20.00,30.00,SummerDesignDay
8,19.866330746445795
10,339667858.5849067
967,28314952.27985188
2,1, 7,21, 0, 9,30.00,40.00,SummerDesignDay
8,19.964711871061558
10,341098721.4624085
967,28319845.757444189
2,1, 7,21, 0, 9,40.00,50.00,SummerDesignDay
8,20.062727728864816
10,342390473.81783947
967,24913167.204693028
2,1, 7,21, 0, 9,50.00,60.00,SummerDesignDay
8,20.160375627757714
10,343733909.02816018
967,24717473.058823844
2,1, 7,21, 0, 9, 0.00,60.00,SummerDesignDay
1201,23.99842983706826
1241,23.99875223390569
1281,23.998755323074119
1321,23.999009951678898
1361,23.9991197380206
1401,23.999003696811429
1441,23.9985160371585
1481,23.99945675690846
1521,23.998295477736833
1561,23.999847507673839
1601,23.999852861266989
1641,23.997701353368968
1681,23.998056805129168
1721,23.998049743776887
1761,23.998438723096695
1801,23.998541915901684
1841,23.998428463633599
1881,23.997840169072693
1921,23.99925330405051
1961,23.99774537531258
2001,23.999693277120487
2041,23.99968921611936
2,1, 7,21, 0,10, 0.00,10.00,SummerDesignDay
8,20.247432286023
10,370783939.007612
967,24700588.030285587
2,1, 7,21, 0,10,10.00,20.00,SummerDesignDay
8,20.334198251055687
10,372288106.07200309
967,24683256.488989697
2,1, 7,21, 0,10,20.00,30.00,SummerDesignDay
8,20.420674889330156
10,373311084.62725886
967,24665594.51197236
2,1, 7,21, 0,10,30.00,40.00,SummerDesignDay
8,20.50686410461129
10,374164566.3224554
967,24647592.8118534
2,1, 7,21, 0,10,40.00,50.00,SummerDesignDay
8,20.59277197915242
10,374774992.05361297
967,24629241.73437107
2,1, 7,21, 0,10,50.00,60.00,SummerDesignDay
8,20.67839100058158
10,375063697.62577077
967,26724709.224179966
2,1, 7,21, 0,10, 0.00,60.00,SummerDesignDay
1201,23.998066961330499
1241,23.998829426684325
1281,23.998802090566075
1321,23.998599803239335
1361,23.998713513946944
1401,23.998592474950926
1441,23.998063777717886
1481,23.998859147649126
1521,23.998032929036339
1561,23.999666060452836
1601,23.99967516742795
1641,23.997397457910897
1681,23.997976447652975
1721,23.997959627523146
1761,23.99776642428841
1801,23.997865758793023
1841,23.997756231331779
1881,23.99746299380959
1921,23.99846017482996
1961,23.997420220045158
2001,23.99939640002766
2041,23.999393473646085
2,1, 7,21, 0,11, 0.00,10.00,SummerDesignDay
8,20.75370382828009
10,375097095.75896528
967,57446855.64075637
2,1, 7,21, 0,11,10.00,20.00,SummerDesignDay
8,20.82879725584293
10,376097866.068667
967,39801919.397227417
2,1, 7,21, 0,11,20.00,30.00,SummerDesignDay
8,20.90366855164364
10,376498779.5837413
967,45351365.70826013
2,1, 7,21, 0,11,30.00,40.00,SummerDesignDay
8,20.978327197140595
10,377007532.57354316
967,53649416.17116642
2,1, 7,21, 0,11,40.00,50.00,SummerDesignDay
8,21.052770435649987
10,377488821.1741127
967,39790900.50276492
2,1, 7,21, 0,11,50.00,60.00,SummerDesignDay
8,21.126998315025806
10,378031213.54709288
967,58509711.38702687
2,1, 7,21, 0,11, 0.00,60.00,SummerDesignDay
1201,23.998165936444364
1241,23.998799212251517
1281,23.998780863914378
1321,23.99838525066194
1361,23.998495677376427
1401,23.998378042381888
1441,23.99808031106939
1481,23.99829861084842
1521,23.998167101134034
1561,23.999552381049527
1601,23.9995619900029
1641,23.99740774301166
1681,23.998142913907406
1721,23.998128110788739
1761,23.99738351313574
1801,23.99747771201163
1841,23.997375227248104
1881,23.99741099783125
1921,23.99776974602374
1961,23.997416218363737
2001,23.99920387243574
2041,23.999202036931256
2,1, 7,21, 0,12, 0.00,10.00,SummerDesignDay
8,21.176364764512436
10,378350263.780585
967,39806106.54893793
2,1, 7,21, 0,12,10.00,20.00,SummerDesignDay
8,21.225636252128049
10,378700145.4004011
967,39777858.3391584
2,1, 7,21, 0,12,20.00,30.00,SummerDesignDay
8,21.27481408813442
10,379130872.43442478
967,58509711.38702687
2,1, 7,21, 0,12,30.00,40.00,SummerDesignDay
8,21.32389714161367
10,379550809.3688455
967,39796824.10743013
2,1, 7,21, 0,12,40.00,50.00,SummerDesignDay
8,21.372882039030619
10,379962014.63250359
967,51041324.136796507
2,1, 7,21, 0,12,50.00,60.00,SummerDesignDay
8,21.421778222706306
10,380351016.72278448
967,48106774.98042547
2,1, 7,21, 0,12, 0.00,60.00,SummerDesignDay
1201,23.99810055885908
1241,23.999035516783285
1281,23.999021879413534
1321,23.998224605316524
1361,23.998329034210657
1401,23.998218408184159
1441,23.997948431391987
1481,23.998001276347425
1521,23.99811856138635
1561,23.99948808026328
1601,23.99949734685795
1641,23.997264603646007
1681,23.99858333260376
1721,23.998575474540645
1761,23.997140538808126
1801,23.9972226697115
1841,23.997135085872377
1881,23.997210732153488
1921,23.997397730037155
1961,23.997263638353755
2001,23.999094963197064
2041,23.999094313177137
2,1, 7,21, 0,13, 0.00,10.00,SummerDesignDay
8,21.460829759656176
10,378614727.45801368
967,39786087.59726918
2,1, 7,21, 0,13,10.00,20.00,SummerDesignDay
8,21.499817003159384
10,378940359.6543614
967,58509711.38702687
2,1, 7,21, 0,13,20.00,30.00,SummerDesignDay
8,21.53875017563149
10,379318331.9784051
967,39802361.82218213
2,1, 7,21, 0,13,30.00,40.00,SummerDesignDay
8,21.57761871831439
10,379710573.79303827
967,42719235.33140503
2,1, 7,21, 0,13,40.00,50.00,SummerDesignDay
8,21.616433450967234
10,380207369.0574325
967,56019863.2367086
2,1, 7,21, 0,13,50.00,60.00,SummerDesignDay
8,21.655184624488759
10,380776852.67101767
967,39792874.00569629
2,1, 7,21, 0,13, 0.00,60.00,SummerDesignDay
1201,23.998335643804457
1241,23.999247667446995
1281,23.999238143534318
1321,23.998321613893038
1361,23.998417334036373
1401,23.99831695566588
1441,23.998183884802079
1481,23.99801945304283
1521,23.998361517889028
1561,23.999519651796409
1601,23.99952873077936
1641,23.99752797016168
1681,23.99884161457693
1721,23.998837704271847
1761,23.99737120143917
1801,23.99739999251071
1841,23.997366712770974
1881,23.997458881702916
1921,23.997382147439326
1961,23.997523937226608
2001,23.99911619526603
2041,23.999117157418394
2,1, 7,21, 0,14, 0.00,10.00,SummerDesignDay
8,21.67937576104208
10,381372218.6525971
967,56399017.336354497
2,1, 7,21, 0,14,10.00,20.00,SummerDesignDay
8,21.703544513972305
10,382143169.8649332
967,42310084.309321347
2,1, 7,21, 0,14,20.00,30.00,SummerDesignDay
8,21.727690125397957
10,383062217.2457605
967,39780585.505675
2,1, 7,21, 0,14,30.00,40.00,SummerDesignDay
8,21.751812391480358
10,384193044.2982047
967,58509711.38702687
2,1, 7,21, 0,14,40.00,50.00,SummerDesignDay
8,21.7759121945202
10,385451220.2215205
967,39798564.2334376
2,1, 7,21, 0,14,50.00,60.00,SummerDesignDay
8,21.799989308895414
10,386829076.63308289
967,48481561.78265105
2,1, 7,21, 0,14, 0.00,60.00,SummerDesignDay
1201,23.99842288798078
1241,23.999326282086604
1281,23.999318404947073
1321,23.998362204480256
1361,23.9984592028448
1401,23.99835864547499
1441,23.998296672944794
1481,23.998413904104443
1521,23.998449023444043
1561,23.99939808946381
1601,23.999410924203955
1641,23.997710255880326
1681,23.998928916229145
1721,23.998926812032449
1761,23.997552371747948
1801,23.99762884838189
1841,23.997548572661914
1881,23.997662476581199
1921,23.99775908914738
1961,23.99770134517513
2001,23.99896163137522
2041,23.99896537859604
2,1, 7,21, 0,15, 0.00,10.00,SummerDesignDay
8,21.799989308895414
10,389673968.81217578
967,50670030.18270303
2,1, 7,21, 0,15,10.00,20.00,SummerDesignDay
8,21.799989308895414
10,391079352.2455348
967,39788356.58471111
2,1, 7,21, 0,15,20.00,30.00,SummerDesignDay
8,21.799989308895414
10,392430096.8087547
967,58509711.38702687
2,1, 7,21, 0,15,30.00,40.00,SummerDesignDay
8,21.799989308895414
10,393707185.7674355
967,39804068.1254536
2,1, 7,21, 0,15,40.00,50.00,SummerDesignDay
8,21.799989308895414
10,394886911.16043117
967,40093188.96332318
2,1, 7,21, 0,15,50.00,60.00,SummerDesignDay
8,21.799989308895414
10,395909771.35068419
967,58249483.616645138
2,1, 7,21, 0,15, 0.00,60.00,SummerDesignDay
1201,23.998099349451129
1241,23.999292231879129
1281,23.99928431827792
1321,23.998197863190965
1361,23.998309008057836
1401,23.99819561623328
1441,23.99801915055099
1481,23.998368480288549
1521,23.998116837621628
1561,23.99877135265611
1601,23.998796179156444
1641,23.99750345069826
1681,23.99889729291998
1721,23.998896780556419
1761,23.997419319331884
1801,23.99747278881623
1841,23.997419610911878
1881,23.997511800604128
1921,23.99774410179461
1961,23.997477926584268
2001,23.998197150222454
2041,23.99820972221742
2,1, 7,21, 0,16, 0.00,10.00,SummerDesignDay
8,21.771094855856704
10,396331429.1975446
967,39794710.59804869
2,1, 7,21, 0,16,10.00,20.00,SummerDesignDay
8,21.742168014681356
10,396481233.2007603
967,54034712.77475672
2,1, 7,21, 0,16,20.00,30.00,SummerDesignDay
8,21.71320780280698
10,396406415.98840489
967,44950551.14587692
2,1, 7,21, 0,16,30.00,40.00,SummerDesignDay
8,21.68421463192507
10,396104842.71050629
967,39783163.36155576
2,1, 7,21, 0,16,40.00,50.00,SummerDesignDay
8,21.655184624488759
10,395629642.9667595
967,58509711.38702687
2,1, 7,21, 0,16,50.00,60.00,SummerDesignDay
8,21.6261256071541
10,394973566.1922608
967,39800290.3829868
2,1, 7,21, 0,16, 0.00,60.00,SummerDesignDay
1201,23.99784698945729
1241,23.999305601453938
1281,23.99929733671105
1321,23.99814042640085
1361,23.998259860771126
1401,23.998140399467976
1441,23.997836901180834
1481,23.998576230447186
1521,23.997846557006868
1561,23.998600149273284
1601,23.99851755771466
1641,23.997446338265097
1681,23.99893367135938
1721,23.998934333847214
1761,23.997249983464
1801,23.9973313454632
1841,23.99725364969802
1881,23.997522853874469
1921,23.998060945031168
1961,23.997399155076339
2001,23.997871330169276
2041,23.997896058910596
2,1, 7,21, 0,17, 0.00,10.00,SummerDesignDay
8,21.587330220761357
10,394055541.80620297
967,34929687.73394631
2,1, 7,21, 0,17,10.00,20.00,SummerDesignDay
8,21.548471336507889
10,392737794.32769349
967,34226743.355397228
2,1, 7,21, 0,17,20.00,30.00,SummerDesignDay
8,21.509558190151649
10,391423755.6424038
967,38847175.39895441
2,1, 7,21, 0,17,30.00,40.00,SummerDesignDay
8,21.470581299934044
10,389992997.90706029
967,41088854.20360863
2,1, 7,21, 0,17,40.00,50.00,SummerDesignDay
8,21.431549204917386
10,388508420.24018028
967,41123457.691220309
2,1, 7,21, 0,17,50.00,60.00,SummerDesignDay
8,21.392452600030727
10,386984444.9405366
967,41022159.540241349
2,1, 7,21, 0,17, 0.00,60.00,SummerDesignDay
1201,23.997800027823435
1241,23.999377683029139
1281,23.99937063999316
1321,23.99827243998517
1361,23.998382884393675
1401,23.998274121530469
1441,23.9978279007268
1481,23.998812631824234
1521,23.997789777348208
1561,23.99831921822056
1601,23.998339440864244
1641,23.997684329103149
1681,23.999053417025008
1721,23.99905501387931
1761,23.997539762926679
1801,23.997631728828507
1841,23.99754599718951
1881,23.997795631236298
1921,23.99840800767599
1961,23.99762766370812
2001,23.997593398546319
2041,23.997609328615867
2,1, 7,21, 0,18, 0.00,10.00,SummerDesignDay
8,21.343500800253975
10,372223127.59309986
967,25985599.735389089
2,1, 7,21, 0,18,10.00,20.00,SummerDesignDay
8,21.29445517999728
10,369585836.15916916
967,24717593.53665285
2,1, 7,21, 0,18,20.00,30.00,SummerDesignDay
8,21.24531961332415
10,367367480.1002409
967,24701589.783274518
2,1, 7,21, 0,18,30.00,40.00,SummerDesignDay
8,21.196085706061159
10,365005092.03630658
967,24684339.412733728
2,1, 7,21, 0,18,40.00,50.00,SummerDesignDay
8,21.146756926413827
10,362615188.24504747
967,24666698.096480378
2,1, 7,21, 0,18,50.00,60.00,SummerDesignDay
8,21.097333755216899
10,360110979.80520299
967,24648717.71036219
2,1, 7,21, 0,18, 0.00,60.00,SummerDesignDay
1201,23.99818219172275
1241,23.999502970048544
1281,23.99949767175076
1321,23.998492024427948
1361,23.99862946906876
1401,23.99849450510233
1441,23.998220112359396
1481,23.99907192509619
1521,23.998169615440529
1561,23.998584063014794
1601,23.998584375186736
1641,23.998248115783765
1681,23.99924373246939
1721,23.999245408843213
1761,23.997953876019044
1801,23.99805979537949
1841,23.997961224673117
1881,23.998357239303674
1921,23.998781818821887
1961,23.998195507075818
2001,23.998024810980515
2041,23.998033842025678
2,1, 7,21, 0,19, 0.00,10.00,SummerDesignDay
8,21.023019732832933
10,271475193.69081988
967,18161916.00155401
2,1, 7,21, 0,19,10.00,20.00,SummerDesignDay
8,20.948490549703029
10,266396785.73700676
967,21887256.500383047
2,1, 7,21, 0,19,20.00,30.00,SummerDesignDay
8,20.873745184382885
10,262661064.9064811
967,21965360.9319204
2,1, 7,21, 0,19,30.00,40.00,SummerDesignDay
8,20.798782612519024
10,258840805.0886588
967,7254863.301767157
2,1, 7,21, 0,19,40.00,50.00,SummerDesignDay
8,20.723605634987398
10,254958884.5887918
967,16072669.06998511
2,1, 7,21, 0,19,50.00,60.00,SummerDesignDay
8,20.648205443782066
10,250598652.57192794
967,21887687.562195518
2,1, 7,21, 0,19, 0.00,60.00,SummerDesignDay
1201,23.999179207973943
1241,23.999673279226028
1281,23.99966920833248
1321,23.9987792458973
1361,23.999101833131744
1401,23.998782004485795
1441,23.99922520135593
1481,23.99940209555345
1521,23.999166364925885
1561,23.999105571268684
1601,23.999126280228823
1641,23.999159399952494
1681,23.99948802953872
1721,23.999488766741135
1761,23.998425159770709
1801,23.99861190740758
1841,23.998432172280919
1881,23.999232570821247
1921,23.999209593857278
1961,23.999125952358268
2001,23.998369241522928
2041,23.998381288870374
2,1, 7,21, 0,20, 0.00,10.00,SummerDesignDay
8,20.59277197915242
10,198402848.58229489
967,12639861.347856434
2,1, 7,21, 0,20,10.00,20.00,SummerDesignDay
8,20.537219972964399
10,193525992.6701223
967,8807879.89512626
2,1, 7,21, 0,20,20.00,30.00,SummerDesignDay
8,20.48154799091199
10,189666402.74559248
967,19831424.644909607
2,1, 7,21, 0,20,30.00,40.00,SummerDesignDay
8,20.425752225515759
10,185978882.07232998
967,12000.0
2,1, 7,21, 0,20,40.00,50.00,SummerDesignDay
8,20.369840248455387
10,183430677.11643575
967,19781250.15417792