Program Version,EnergyPlus, Version 9.1.0-fafb9d5652, YMD=2019.10.28 16:20
1,5,Environment Title[],Latitude[deg],Longitude[deg],Time Zone[],Elevation[m]
2,8,Day of Simulation[],Month[],Day of Month[],DST Indicator[1=yes 0=no],Hour[],StartMinute[],EndMinute[],DayType
3,5,Cumulative Day of Simulation[],Month[],Day of Month[],DST Indicator[1=yes 0=no],DayType  ! When Daily Report Variables Requested
4,2,Cumulative Days of Simulation[],Month[]  ! When Monthly Report Variables Requested
5,1,Cumulative Days of Simulation[] ! When Run Period Report Variables Requested
6,1,Calendar Year of Simulation[] ! When Annual Report Variables Requested
7,9,Environment,Site Outdoor Air Drybulb Temperature [C] !Monthly [Value,Min,Day,Hour,Minute,Max,Day,Hour,Minute]
8,1,Environment,Site Outdoor Air Wetbulb Temperature [C] !TimeStep
1003,1,SP-STORY 1 EAST CORE SPACE SYS-3 FLR-1 SCH-A HPLCMT-CORE ZN,Zone Air Temperature [C] !Hourly
1004,7,SP-STORY 1 EAST CORE SPACE SYS-3 FLR-1 SCH-A HPLCMT-CORE ZN,Zone Air Relative Humidity [%] !Daily [Value,Min,Hour,Minute,Max,Hour,Minute]
1043,1,SP-STORY 1 EAST LEFT PERIMETER SPACE SYS-3 FLR-1 SCH-A HPLCMT-EAST ZN,Zone Air Temperature [C] !Hourly
1044,7,SP-STORY 1 EAST LEFT PERIMETER SPACE SYS-3 FLR-1 SCH-A HPLCMT-EAST ZN,Zone Air Relative Humidity [%] !Daily [Value,Min,Hour,Minute,Max,Hour,Minute]
1083,1,SP-STORY 1 EAST RIGHT PERIMETER SPACE SYS-3 FLR-1 SCH-A HPLCMT-EAST ZN,Zone Air Temperature [C] !Hourly
1084,7,SP-STORY 1 EAST RIGHT PERIMETER SPACE SYS-3 FLR-1 SCH-A HPLCMT-EAST ZN,Zone Air Relative Humidity [%] !Daily [Value,Min,Hour,Minute,Max,Hour,Minute]
1123,1,SP-STORY 1 NORTH LEFT PERIMETER SPACE SYS-3 FLR-1 SCH-A HPLCMT-NORTH ZN,Zone Air Temperature [C] !Hourly
1124,7,SP-STORY 1 NORTH LEFT PERIMETER SPACE SYS-3 FLR-1 SCH-A HPLCMT-NORTH ZN,Zone Air Relative Humidity [%] !Daily [Value,Min,Hour,Minute,Max,Hour,Minute]
1163,1,SP-STORY 1 NORTH LOWER PERIMETER SPACE SYS-3 FLR-1 SCH-A HPLCMT-NORTH ZN,Zone Air Temperature [C] !Hourly
1164,7,SP-STORY 1 NORTH LOWER PERIMETER SPACE SYS-3 FLR-1 SCH-A HPLCMT-NORTH ZN,Zone Air Relative Humidity [%] !Daily [Value,Min,Hour,Minute,Max,Hour,Minute]
1203,1,SP-STORY 1 NORTH RIGHT PERIMETER SPACE SYS-3 FLR-1 SCH-A HPLCMT-NORTH ZN,Zone Air Temperature [C] !Hourly
1204,7,SP-STORY 1 NORTH RIGHT PERIMETER SPACE SYS-3 FLR-1 SCH-A HPLCMT-NORTH ZN,Zone Air Relative Humidity [%] !Daily [Value,Min,Hour,Minute,Max,Hour,Minute]
1243,1,SP-STORY 1 SOUTH CORE SPACE SYS-3 FLR-1 SCH-A HPLCMT-CORE ZN,Zone Air Temperature [C] !Hourly
1244,7,SP-STORY 1 SOUTH CORE SPACE SYS-3 FLR-1 SCH-A HPLCMT-CORE ZN,Zone Air Relative Humidity [%] !Daily [Value,Min,Hour,Minute,Max,Hour,Minute]
1283,1,SP-STORY 1 SOUTH LOWER PERIMETER SPACE SYS-3 FLR-1 SCH-A HPLCMT-SOUTH ZN,Zone Air Temperature [C] !Hourly
1284,7,SP-STORY 1 SOUTH LOWER PERIMETER SPACE SYS-3 FLR-1 SCH-A HPLCMT-SOUTH ZN,Zone Air Relative Humidity [%] !Daily [Value,Min,Hour,Minute,Max,Hour,Minute]
1323,1,SP-STORY 1 WEST CORE SPACE SYS-3 FLR-1 SCH-A HPLCMT-CORE ZN,Zone Air Temperature [C] !Hourly
1324,7,SP-STORY 1 WEST CORE SPACE SYS-3 FLR-1 SCH-A HPLCMT-CORE ZN,Zone Air Relative Humidity [%] !Daily [Value,Min,Hour,Minute,Max,Hour,Minute]
1363,1,SP-STORY 1 WEST LEFT PERIMETER SPACE SYS-3 FLR-1 SCH-A HPLCMT-WEST ZN,Zone Air Temperature [C] !Hourly
1364,7,SP-STORY 1 WEST LEFT PERIMETER SPACE SYS-3 FLR-1 SCH-A HPLCMT-WEST ZN,Zone Air Relative Humidity [%] !Daily [Value,Min,Hour,Minute,Max,Hour,Minute]
1403,1,SP-STORY 1 WEST RIGHT PERIMETER SPACE SYS-3 FLR-1 SCH-A HPLCMT-WEST ZN,Zone Air Temperature [C] !Hourly
1404,7,SP-STORY 1 WEST RIGHT PERIMETER SPACE SYS-3 FLR-1 SCH-A HPLCMT-WEST ZN,Zone Air Relative Humidity [%] !Daily [Value,Min,Hour,Minute,Max,Hour,Minute]
1443,1,SP-STORY 2 EAST CORE SPACE SYS-3 FLR-2 SCH-A HPLCMT-CORE ZN,Zone Air Temperature [C] !Hourly
1444,7,SP-STORY 2 EAST CORE SPACE SYS-3 FLR-2 SCH-A HPLCMT-CORE ZN,Zone Air Relative Humidity [%] !Daily [Value,Min,Hour,Minute,Max,Hour,Minute]
1483,1,SP-STORY 2 EAST LEFT PERIMETER SPACE SYS-3 FLR-2 SCH-A HPLCMT-EAST ZN,Zone Air Temperature [C] !Hourly
1484,7,SP-STORY 2 EAST LEFT PERIMETER SPACE SYS-3 FLR-2 SCH-A HPLCMT-EAST ZN,Zone Air Relative Humidity [%] !Daily [Value,Min,Hour,Minute,Max,Hour,Minute]
1523,1,SP-STORY 2 EAST RIGHT PERIMETER SPACE SYS-3 FLR-2 SCH-A HPLCMT-EAST ZN,Zone Air Temperature [C] !Hourly
1524,7,SP-STORY 2 EAST RIGHT PERIMETER SPACE SYS-3 FLR-2 SCH-A HPLCMT-EAST ZN,Zone Air Relative Humidity [%] !Daily [Value,Min,Hour,Minute,Max,Hour,Minute]
1563,1,SP-STORY 2 NORTH LEFT PERIMETER SPACE SYS-3 FLR-2 SCH-A HPLCMT-NORTH ZN,Zone Air Temperature [C] !Hourly
1564,7,SP-STORY 2 NORTH LEFT PERIMETER SPACE SYS-3 FLR-2 SCH-A HPLCMT-NORTH ZN,Zone Air Relative Humidity [%] !Daily [Value,Min,Hour,Minute,Max,Hour,Minute]
1603,1,SP-STORY 2 NORTH LOWER PERIMETER SPACE SYS-3 FLR-2 SCH-A HPLCMT-NORTH ZN,Zone Air Temperature [C] !Hourly
1604,7,SP-STORY 2 NORTH LOWER PERIMETER SPACE SYS-3 FLR-2 SCH-A HPLCMT-NORTH ZN,Zone Air Relative Humidity [%] !Daily [Value,Min,Hour,Minute,Max,Hour,Minute]
1643,1,SP-STORY 2 NORTH RIGHT PERIMETER SPACE SYS-3 FLR-2 SCH-A HPLCMT-NORTH ZN,Zone Air Temperature [C] !Hourly
1644,7,SP-STORY 2 NORTH RIGHT PERIMETER SPACE SYS-3 FLR-2 SCH-A HPLCMT-NORTH ZN,Zone Air Relative Humidity [%] !Daily [Value,Min,Hour,Minute,Max,Hour,Minute]
1683,1,SP-STORY 2 SOUTH CORE SPACE SYS-3 FLR-2 SCH-A HPLCMT-CORE ZN,Zone Air Temperature [C] !Hourly
1684,7,SP-STORY 2 SOUTH CORE SPACE SYS-3 FLR-2 SCH-A HPLCMT-CORE ZN,Zone Air Relative Humidity [%] !Daily [Value,Min,Hour,Minute,Max,Hour,Minute]
1723,1,SP-STORY 2 SOUTH LOWER PERIMETER SPACE SYS-3 FLR-2 SCH-A HPLCMT-SOUTH ZN,Zone Air Temperature [C] !Hourly
1724,7,SP-STORY 2 SOUTH LOWER PERIMETER SPACE SYS-3 FLR-2 SCH-A HPLCMT-SOUTH ZN,Zone Air Relative Humidity [%] !Daily [Value,Min,Hour,Minute,Max,Hour,Minute]
1763,1,SP-STORY 2 WEST CORE SPACE SYS-3 FLR-2 SCH-A HPLCMT-CORE ZN,Zone Air Temperature [C] !Hourly
1764,7,SP-STORY 2 WEST CORE SPACE SYS-3 FLR-2 SCH-A HPLCMT-CORE ZN,Zone Air Relative Humidity [%] !Daily [Value,Min,Hour,Minute,Max,Hour,Minute]
1803,1,SP-STORY 2 WEST LEFT PERIMETER SPACE SYS-3 FLR-2 SCH-A HPLCMT-WEST ZN,Zone Air Temperature [C] !Hourly
1804,7,SP-STORY 2 WEST LEFT PERIMETER SPACE SYS-3 FLR-2 SCH-A HPLCMT-WEST ZN,Zone Air Relative Humidity [%] !Daily [Value,Min,Hour,Minute,Max,Hour,Minute]
1843,1,SP-STORY 2 WEST RIGHT PERIMETER SPACE SYS-3 FLR-2 SCH-A HPLCMT-WEST ZN,Zone Air Temperature [C] !Hourly
1844,7,SP-STORY 2 WEST RIGHT PERIMETER SPACE SYS-3 FLR-2 SCH-A HPLCMT-WEST ZN,Zone Air Relative Humidity [%] !Daily [Value,Min,Hour,Minute,Max,Hour,Minute]
10,1,Electricity:Facility [J] !TimeStep
2302,1,Gas:Facility [J] !TimeStep
End of Data Dictionary
1,OTTAWA=MACDONALD-CARTIER INTL ANN CLG .4% CONDNS DB=>MWB,  45.32, -75.67,  -5.00, 114.90
2,1, 7,21, 0, 1, 0.00,10.00,SummerDesignDay
8,19.2840458690032
10,82113287.6272994
2302,0.0
2,1, 7,21, 0, 1,10.00,20.00,SummerDesignDay
8,19.25220058801155
10,82113287.6272994
2302,0.0
2,1, 7,21, 0, 1,20.00,30.00,SummerDesignDay
8,19.2203165671003
10,82113287.6272994
2302,0.0
2,1, 7,21, 0, 1,30.00,40.00,SummerDesignDay
8,19.188388626363016
10,82113287.6272994
2302,0.0
2,1, 7,21, 0, 1,40.00,50.00,SummerDesignDay
8,19.15642770709394
10,82113287.6272994
2302,0.0
2,1, 7,21, 0, 1,50.00,60.00,SummerDesignDay
8,19.124427397166604
10,82113287.6272994
2302,0.0
2,1, 7,21, 0, 1, 0.00,60.00,SummerDesignDay
1003,26.570441036683765
1043,29.373413308578127
1083,29.513345477621784
1123,26.677678496516838
1163,26.44680066597375
1203,26.65941728470138
1243,26.305871780353248
1283,27.681928840774164
1323,26.621377662615087
1363,30.985346543066325
1403,30.80364074775906
1443,26.951725962456476
1483,29.28308431323521
1523,29.36457147257369
1563,26.984363634671018
1603,26.830391189511535
1643,26.967760086250224
1683,26.74979317731048
1723,27.90676488004144
1763,26.990688976825145
1803,30.34279034002212
1843,30.206686339908346
2,1, 7,21, 0, 2, 0.00,10.00,SummerDesignDay
8,19.103070457286994
10,82113287.6272994
2302,0.0
2,1, 7,21, 0, 2,10.00,20.00,SummerDesignDay
8,19.08170119193842
10,82113287.6272994
2302,0.0
2,1, 7,21, 0, 2,20.00,30.00,SummerDesignDay
8,19.06030939273045
10,82113287.6272994
2302,0.0
2,1, 7,21, 0, 2,30.00,40.00,SummerDesignDay
8,19.03890076386851
10,82113287.6272994
2302,0.0
2,1, 7,21, 0, 2,40.00,50.00,SummerDesignDay
8,19.01747444558601
10,82113287.6272994
2302,0.0
2,1, 7,21, 0, 2,50.00,60.00,SummerDesignDay
8,18.996036037989819
10,82222623.74554853
2302,0.0
2,1, 7,21, 0, 2, 0.00,60.00,SummerDesignDay
1003,26.53115276850309
1043,29.360718431994696
1083,29.499942730694469
1123,26.576298325489249
1163,26.350048605437278
1203,26.55589171566932
1243,26.246343963800869
1283,27.56811196814166
1323,26.586604095626304
1363,30.94336695472745
1403,30.763442968107538
1443,26.873122397663907
1483,29.2704831960219
1523,29.35091203113728
1563,26.917662273301205
1603,26.759248160063483
1643,26.89825576636382
1683,26.65827505306777
1723,27.866646116511786
1763,26.914781493686136
1803,30.31828890770338
1843,30.183079289853635
2,1, 7,21, 0, 3, 0.00,10.00,SummerDesignDay
8,18.97994058577143
10,82222623.74554853
2302,0.0
2,1, 7,21, 0, 3,10.00,20.00,SummerDesignDay
8,18.96383509390068
10,82331959.86379768
2302,0.0
2,1, 7,21, 0, 3,20.00,30.00,SummerDesignDay
8,18.947724870466826
10,82331959.86379768
2302,0.0
2,1, 7,21, 0, 3,30.00,40.00,SummerDesignDay
8,18.931599991201066
10,82391401.1681768
2302,0.0
2,1, 7,21, 0, 3,40.00,50.00,SummerDesignDay
8,18.915470425479847
10,82391401.1681768
2302,0.0
2,1, 7,21, 0, 3,50.00,60.00,SummerDesignDay
8,18.8993255989201
10,82391401.1681768
2302,0.0
2,1, 7,21, 0, 3, 0.00,60.00,SummerDesignDay
1003,26.484752426103439
1043,29.32576580941368
1083,29.46543362603988
1123,26.46347473057268
1163,26.249155667499378
1203,26.441517940583453
1243,26.188258169107696
1283,27.453217297756
1323,26.54207994989949
1363,30.89241599119785
1403,30.706486332663674
1443,26.809188462240159
1483,29.24758361585224
1523,29.327369683169498
1563,26.80679032429964
1603,26.649623865062439
1643,26.78539358564078
1683,26.58495286820099
1723,27.812034822180654
1763,26.85197506206234
1803,30.28389922644345
1843,30.149295820964583
2,1, 7,21, 0, 4, 0.00,10.00,SummerDesignDay
8,18.883176400800605
10,82391401.1681768
2302,0.0
2,1, 7,21, 0, 4,10.00,20.00,SummerDesignDay
8,18.867011710849643
10,82391401.1681768
2302,0.0
2,1, 7,21, 0, 4,20.00,30.00,SummerDesignDay
8,18.850837592647797
10,82391401.1681768
2302,0.0
2,1, 7,21, 0, 4,30.00,40.00,SummerDesignDay
8,18.834658360362007
10,82391401.1681768
2302,0.0
2,1, 7,21, 0, 4,40.00,50.00,SummerDesignDay
8,18.8184648850153
10,82391401.1681768
2302,0.0
2,1, 7,21, 0, 4,50.00,60.00,SummerDesignDay
8,18.8022655410338
10,82391401.1681768
2302,0.0
2,1, 7,21, 0, 4, 0.00,60.00,SummerDesignDay
1003,26.43927608520804
1043,29.26800195665435
1083,29.40530701701179
1123,26.34983316547249
1163,26.14815561481001
1203,26.32674817819768
1243,26.132350422813585
1283,27.340130114077643
1323,26.497933337790199
1363,30.78680343464281
1403,30.590398049583855
1443,26.750625750329573
1483,29.22178700175739
1523,29.301281917336956
1563,26.681047243052264
1603,26.528166526094596
1643,26.658425011917278
1683,26.5183361622112
1723,27.713274884361029
1763,26.7940852160157
1803,30.247960579538814
1843,30.113752253923363
2,1, 7,21, 0, 5, 0.00,10.00,SummerDesignDay
8,18.79145567867417
10,82391401.1681768
2302,0.0
2,1, 7,21, 0, 5,10.00,20.00,SummerDesignDay
8,18.780646332866213
10,82391401.1681768
2302,0.0
2,1, 7,21, 0, 5,20.00,30.00,SummerDesignDay
8,18.76983296444122
10,82391401.1681768
2302,0.0
2,1, 7,21, 0, 5,30.00,40.00,SummerDesignDay
8,18.75901007085189
10,82391401.1681768
2302,0.0
2,1, 7,21, 0, 5,40.00,50.00,SummerDesignDay
8,18.7481869937485
10,82331959.8637977
2302,0.0
2,1, 7,21, 0, 5,50.00,60.00,SummerDesignDay
8,18.737365749092537
10,82282065.04992767
2302,0.0
2,1, 7,21, 0, 5, 0.00,60.00,SummerDesignDay
1003,26.39435132245679
1043,29.24317444978989
1083,29.4454992793853
1123,26.315316353690588
1163,26.061933711379525
1203,26.291442370080675
1243,26.07749501502739
1283,27.245384224831225
1323,26.4538762047324
1363,30.658517050005928
1403,30.462535800877274
1443,26.703813480652003
1483,29.266780264079065
1523,29.390486560617278
1563,26.63656567221229
1603,26.42980528612328
1643,26.613240837371607
1683,26.4625746773078
1723,27.619163827773268
1763,26.747328016268125
1803,30.22787168346109
1843,30.093615713754898
2,1, 7,21, 0, 6, 0.00,10.00,SummerDesignDay
8,18.7481869937485
10,82187184.72493921
2302,0.0
2,1, 7,21, 0, 6,10.00,20.00,SummerDesignDay
8,18.75901007085189
10,82178494.17379412
2302,0.0
2,1, 7,21, 0, 6,20.00,30.00,SummerDesignDay
8,18.76983296444122
10,82113287.6272994
2302,0.0
2,1, 7,21, 0, 6,30.00,40.00,SummerDesignDay
8,18.780646332866213
10,82173986.39459668
2302,0.0
2,1, 7,21, 0, 6,40.00,50.00,SummerDesignDay
8,18.79145567867417
10,82146654.06991104
2302,0.0
2,1, 7,21, 0, 6,50.00,60.00,SummerDesignDay
8,18.8022655410338
10,82137107.90242665
2302,0.0
2,1, 7,21, 0, 6, 0.00,60.00,SummerDesignDay
1003,26.401863783152579
1043,29.387890870934695
1083,29.419521600488893
1123,27.175984317584768
1163,26.207623637957096
1203,27.155344489566916
1243,26.03974834284722
1283,27.37055170799717
1323,26.437598169522408
1363,29.418039705520074
1403,29.409621235995258
1443,26.869898485388366
1483,29.40165536356723
1523,29.422044072068265
1563,27.567863950796906
1603,26.939014632407014
1643,27.548562522107983
1683,26.558533954931535
1723,27.78231125938635
1763,26.890188551190037
1803,29.433581702225767
1843,29.427030742751965
2,1, 7,21, 0, 7, 0.00,10.00,SummerDesignDay
8,18.840052605786814
10,206120306.44666816
2302,165777.80614816625
2,1, 7,21, 0, 7,10.00,20.00,SummerDesignDay
8,18.87778619489805
10,176022135.7907499
2302,0.0
2,1, 7,21, 0, 7,20.00,30.00,SummerDesignDay
8,18.915470425479847
10,158862251.31555028
2302,0.0
2,1, 7,21, 0, 7,30.00,40.00,SummerDesignDay
8,18.953096118062495
10,136076008.62950579
2302,0.0
2,1, 7,21, 0, 7,40.00,50.00,SummerDesignDay
8,18.99066883495391
10,139233058.30495025
2302,0.0
2,1, 7,21, 0, 7,50.00,60.00,SummerDesignDay
8,19.02819215483863
10,138264933.2453546
2302,0.0
2,1, 7,21, 0, 7, 0.00,60.00,SummerDesignDay
1003,24.258231972031337
1043,24.14966686829713
1083,24.147691748988817
1123,24.135094331597974
1163,24.05963485266481
1203,24.13314834282779
1243,24.157468801709674
1283,24.0298453019729
1323,24.250016056458987
1363,24.031301624300963
1403,24.03302812372341
1443,24.168849205501404
1483,24.14811112559938
1523,24.14526720412861
1563,24.14829988043623
1603,24.09768626844352
1643,24.147044698844654
1683,24.12082656617372
1723,24.019061781473849
1763,24.16091674675987
1803,23.906603752937359
1843,23.94411318420541
2,1, 7,21, 0, 8, 0.00,10.00,SummerDesignDay
8,19.119090922986229
10,187375880.8822114
2302,0.0
2,1, 7,21, 0, 8,10.00,20.00,SummerDesignDay
8,19.209676482065853
10,192814323.30922634
2302,0.0
2,1, 7,21, 0, 8,20.00,30.00,SummerDesignDay
8,19.299951906634847
10,202873358.64185367
2302,0.0
2,1, 7,21, 0, 8,30.00,40.00,SummerDesignDay
8,19.389928824990219
10,207698370.89527048
2302,0.0
2,1, 7,21, 0, 8,40.00,50.00,SummerDesignDay
8,19.4795823892733
10,210588642.7934331
2302,0.0
2,1, 7,21, 0, 8,50.00,60.00,SummerDesignDay
8,19.568935475929295
10,213415607.92687399
2302,0.0
2,1, 7,21, 0, 8, 0.00,60.00,SummerDesignDay
1003,23.99961213597291
1043,23.99909081858291
1083,23.99913914030297
1123,23.99946783446302
1163,23.999619541777084
1203,23.99946744660018
1243,23.999765596512515
1283,24.000148875113245
1323,23.999654569472424
1363,24.000155700472339
1403,24.000146661720917
1443,23.99941625519857
1483,23.998416425363
1523,23.998424306865009
1563,23.99916194687867
1603,23.99929142051859
1643,23.99915813455551
1683,23.99964048794996
1723,24.000078552669057
1763,23.99945351009561
1803,23.98552892061048
1843,23.987021009420848
2,1, 7,21, 0, 9, 0.00,10.00,SummerDesignDay
8,19.66844507688812
10,340799558.65086528
2302,0.0
2,1, 7,21, 0, 9,10.00,20.00,SummerDesignDay
8,19.767573179707669
10,344021073.74744179
2302,0.0
2,1, 7,21, 0, 9,20.00,30.00,SummerDesignDay
8,19.866330746445795
10,342175297.91056826
2302,0.0
2,1, 7,21, 0, 9,30.00,40.00,SummerDesignDay
8,19.964711871061558
10,343257616.3873826
2302,0.0
2,1, 7,21, 0, 9,40.00,50.00,SummerDesignDay
8,20.062727728864816
10,344219311.10509797
2302,0.0
2,1, 7,21, 0, 9,50.00,60.00,SummerDesignDay
8,20.160375627757714
10,345314391.5406845
2302,0.0
2,1, 7,21, 0, 9, 0.00,60.00,SummerDesignDay
1003,23.998654714580728
1043,23.998912739100335
1083,23.998916687136107
1123,23.999118066624886
1163,23.999223524439925
1203,23.99911587291741
1243,23.99874895465508
1283,23.99953553785603
1323,23.998736201074366
1363,23.99993124356617
1403,23.999932837007298
1443,23.9978965758462
1483,23.99821484364379
1523,23.998208065857516
1563,23.998557344903124
1603,23.9986597388846
1643,23.998550634026093
1683,23.998022915181847
1723,23.99933622567423
1763,23.997927121954203
1803,24.000092609558974
1843,24.000111902416149
2,1, 7,21, 0,10, 0.00,10.00,SummerDesignDay
8,20.247432286023
10,372619719.8656142
2302,0.0
2,1, 7,21, 0,10,10.00,20.00,SummerDesignDay
8,20.334198251055687
10,374035538.7308149
2302,0.0
2,1, 7,21, 0,10,20.00,30.00,SummerDesignDay
8,20.420674889330156
10,374974123.9471033
2302,0.0
2,1, 7,21, 0,10,30.00,40.00,SummerDesignDay
8,20.50686410461129
10,375776211.1980488
2302,0.0
2,1, 7,21, 0,10,40.00,50.00,SummerDesignDay
8,20.59277197915242
10,376358923.04089936
2302,0.0
2,1, 7,21, 0,10,50.00,60.00,SummerDesignDay
8,20.67839100058158
10,376645083.4167645
2302,0.0
2,1, 7,21, 0,10, 0.00,60.00,SummerDesignDay
1003,23.998490489611134
1043,23.99904568923813
1083,23.999020868267988
1123,23.99881106768825
1163,23.998915913085978
1203,23.998807763588088
1243,23.998479666449656
1283,23.999025104622605
1323,23.99855644809865
1363,23.999759885922104
1403,23.999767154309738
1443,23.99780822292637
1483,23.998304515575485
1523,23.99828818328493
1563,23.998000486707416
1603,23.998099426768588
1643,23.99799377953383
1683,23.997847818660217
1723,23.998626827617966
1763,23.997815449016824
1803,23.999715456930376
1843,23.99970496485488
2,1, 7,21, 0,11, 0.00,10.00,SummerDesignDay
8,20.75370382828009
10,376695353.488144
2302,0.0
2,1, 7,21, 0,11,10.00,20.00,SummerDesignDay
8,20.82879725584293
10,376903043.0860128
2302,0.0
2,1, 7,21, 0,11,20.00,30.00,SummerDesignDay
8,20.90366855164364
10,377186408.32358089
2302,0.0
2,1, 7,21, 0,11,30.00,40.00,SummerDesignDay
8,20.978327197140595
10,377526784.2518906
2302,0.0
2,1, 7,21, 0,11,40.00,50.00,SummerDesignDay
8,21.052770435649987
10,377938147.0611856
2302,0.0
2,1, 7,21, 0,11,50.00,60.00,SummerDesignDay
8,21.126998315025806
10,378442450.6550827
2302,0.0
2,1, 7,21, 0,11, 0.00,60.00,SummerDesignDay
1003,23.9987836912058
1043,23.99905446160757
1083,23.999160250019118
1123,23.99872274032028
1163,23.998823417495797
1203,23.998719733401786
1243,23.998698148588806
1283,23.998636020423644
1323,23.998818956483964
1363,23.999672684708984
1403,23.99968138986937
1443,23.998030898247078
1483,23.99842777105737
1523,23.998413990202747
1563,23.997766021707269
1603,23.997861648082489
1643,23.99776099701691
1683,23.99801418053022
1723,23.998094571336279
1763,23.998024462495964
1803,23.99941740335544
1843,23.999413274834983
2,1, 7,21, 0,12, 0.00,10.00,SummerDesignDay
8,21.176364764512436
10,378747221.3775586
2302,0.0
2,1, 7,21, 0,12,10.00,20.00,SummerDesignDay
8,21.225636252128049
10,379149587.37698277
2302,0.0
2,1, 7,21, 0,12,20.00,30.00,SummerDesignDay
8,21.27481408813442
10,379627287.8682968
2302,0.0
2,1, 7,21, 0,12,30.00,40.00,SummerDesignDay
8,21.32389714161367
10,380143837.63148418
2302,0.0
2,1, 7,21, 0,12,40.00,50.00,SummerDesignDay
8,21.372882039030619
10,380657830.2643977
2302,0.0
2,1, 7,21, 0,12,50.00,60.00,SummerDesignDay
8,21.421778222706306
10,381147595.232155
2302,0.0
2,1, 7,21, 0,12, 0.00,60.00,SummerDesignDay
1003,23.998952876352136
1043,23.99928319074696
1083,23.999272309642647
1123,23.998685965441024
1163,23.99878235679711
1203,23.998683987361419
1243,23.99882290653349
1283,23.998538266526379
1323,23.998969462240564
1363,23.999635777829068
1403,23.999644252085206
1443,23.998131887973746
1483,23.998838834820377
1523,23.998830937140644
1563,23.99766216324546
1603,23.99774993254545
1643,23.99765957559907
1683,23.99807278082075
1723,23.997898463957694
1763,23.99811641487094
1803,23.999296659215934
1843,23.999296087673075
2,1, 7,21, 0,13, 0.00,10.00,SummerDesignDay
8,21.460829759656176
10,378424549.1771843
2302,0.0
2,1, 7,21, 0,13,10.00,20.00,SummerDesignDay
8,21.499817003159384
10,378726914.0152456
2302,0.0
2,1, 7,21, 0,13,20.00,30.00,SummerDesignDay
8,21.53875017563149
10,379109634.9938421
2302,0.0
2,1, 7,21, 0,13,30.00,40.00,SummerDesignDay
8,21.57761871831439
10,379516728.19429638
2302,0.0
2,1, 7,21, 0,13,40.00,50.00,SummerDesignDay
8,21.616433450967234
10,380003899.844859
2302,0.0
2,1, 7,21, 0,13,50.00,60.00,SummerDesignDay
8,21.655184624488759
10,380605747.5500711
2302,0.0
2,1, 7,21, 0,13, 0.00,60.00,SummerDesignDay
1003,23.9992248122629
1043,23.99945989978149
1083,23.99945144352239
1123,23.998802099753037
1163,23.99889288044538
1203,23.998800946510796
1243,23.999112240410978
1283,23.998619911832166
1323,23.99923444855914
1363,23.999664748086265
1403,23.9996730232083
1443,23.99841724634142
1483,23.999066599272067
1523,23.99906205421627
1563,23.997824518040877
1603,23.997870851176868
1643,23.99782357480993
1683,23.998355804246257
1723,23.997935007376698
1763,23.998401791165749
1803,23.99930240483091
1843,23.9993042081142
2,1, 7,21, 0,14, 0.00,10.00,SummerDesignDay
8,21.67937576104208
10,381183790.9205727
2302,0.0
2,1, 7,21, 0,14,10.00,20.00,SummerDesignDay
8,21.703544513972305
10,381931994.669299
2302,0.0
2,1, 7,21, 0,14,20.00,30.00,SummerDesignDay
8,21.727690125397957
10,382858224.54178866
2302,0.0
2,1, 7,21, 0,14,30.00,40.00,SummerDesignDay
8,21.751812391480358
10,383960569.29956719
2302,0.0
2,1, 7,21, 0,14,40.00,50.00,SummerDesignDay
8,21.7759121945202
10,385217288.86200538
2302,0.0
2,1, 7,21, 0,14,50.00,60.00,SummerDesignDay
8,21.799989308895414
10,386594175.7619939
2302,0.0
2,1, 7,21, 0,14, 0.00,60.00,SummerDesignDay
1003,23.999369938522844
1043,23.999526133218298
1083,23.999519019072797
1123,23.998856335156643
1163,23.998949068219415
1203,23.998855669895439
1243,23.999287872964144
1283,23.998942996724684
1323,23.99937584684649
1363,23.999582919898076
1403,23.99959402054434
1443,23.998604931041475
1483,23.999144999340193
1523,23.99914193274587
1563,23.998121909474638
1603,23.998199780766176
1643,23.998121774060907
1683,23.998563803884808
1723,23.99830917682075
1763,23.998587556517355
1803,23.999176098876889
1843,23.999180701593479
2,1, 7,21, 0,15, 0.00,10.00,SummerDesignDay
8,21.799989308895414
10,390693073.6139978
2302,0.0
2,1, 7,21, 0,15,10.00,20.00,SummerDesignDay
8,21.799989308895414
10,392185916.2415274
2302,0.0
2,1, 7,21, 0,15,20.00,30.00,SummerDesignDay
8,21.799989308895414
10,393593509.1600964
2302,0.0
2,1, 7,21, 0,15,30.00,40.00,SummerDesignDay
8,21.799989308895414
10,394911336.17716738
2302,0.0
2,1, 7,21, 0,15,40.00,50.00,SummerDesignDay
8,21.799989308895414
10,396127755.9919962
2302,0.0
2,1, 7,21, 0,15,50.00,60.00,SummerDesignDay
8,21.799989308895414
10,397189773.864298
2302,0.0
2,1, 7,21, 0,15, 0.00,60.00,SummerDesignDay
1003,23.99918415071177
1043,23.99948551207631
1083,23.99947838430249
1123,23.998708114629197
1163,23.998814217045639
1203,23.998708334612748
1243,23.999138224169298
1283,23.998892732742907
1323,23.999184463860926
1363,23.99910012348121
1403,23.999121176405855
1443,23.998429854222996
1483,23.99910801233263
1523,23.999106294022569
1563,23.99795708180983
1603,23.997961497019046
1643,23.99795977243836
1683,23.998429977817908
1723,23.998203853511084
1763,23.99840151157677
1803,23.998534579685957
1843,23.998547243483359
2,1, 7,21, 0,16, 0.00,10.00,SummerDesignDay
8,21.771094855856704
10,397589821.30114367
2302,0.0
2,1, 7,21, 0,16,10.00,20.00,SummerDesignDay
8,21.742168014681356
10,397701509.74221697
2302,0.0
2,1, 7,21, 0,16,20.00,30.00,SummerDesignDay
8,21.71320780280698
10,397561664.59295138
2302,0.0
2,1, 7,21, 0,16,30.00,40.00,SummerDesignDay
8,21.68421463192507
10,397174377.59838977
2302,0.0
2,1, 7,21, 0,16,40.00,50.00,SummerDesignDay
8,21.655184624488759
10,396569834.38225457
2302,0.0
2,1, 7,21, 0,16,50.00,60.00,SummerDesignDay
8,21.6261256071541
10,395773899.8431798
2302,0.0
2,1, 7,21, 0,16, 0.00,60.00,SummerDesignDay
1003,23.998982693778748
1043,23.999489454243308
1083,23.999482052506968
1123,23.998643404396728
1163,23.998755973541777
1203,23.998645208289735
1243,23.998983341011856
1283,23.99895848164464
1323,23.99897307204242
1363,23.99914279534057
1403,23.999056242861604
1443,23.99833958813555
1483,23.999133393827134
1523,23.999132697733413
1563,23.9977605693869
1603,23.997853603973103
1643,23.997764755930409
1683,23.99838967064224
1723,23.998425742501266
1763,23.998296816886947
1803,23.99842923307737
1843,23.99845375153691
2,1, 7,21, 0,17, 0.00,10.00,SummerDesignDay
8,21.587330220761357
10,394683277.9221579
2302,0.0
2,1, 7,21, 0,17,10.00,20.00,SummerDesignDay
8,21.548471336507889
10,393385091.50487139
2302,0.0
2,1, 7,21, 0,17,20.00,30.00,SummerDesignDay
8,21.509558190151649
10,391965974.36683407
2302,0.0
2,1, 7,21, 0,17,30.00,40.00,SummerDesignDay
8,21.470581299934044
10,390454135.7788173
2302,0.0
2,1, 7,21, 0,17,40.00,50.00,SummerDesignDay
8,21.431549204917386
10,388884193.03090229
2302,0.0
2,1, 7,21, 0,17,50.00,60.00,SummerDesignDay
8,21.392452600030727
10,387260428.4929014
2302,0.0
2,1, 7,21, 0,17, 0.00,60.00,SummerDesignDay
1003,23.99888332305755
1043,23.999527441237349
1083,23.99952106091062
1123,23.99870195008984
1163,23.99880770247171
1203,23.99870489902658
1243,23.99890919214458
1283,23.999105218035028
1323,23.99886880026702
1363,23.998750932351596
1403,23.99877170633327
1443,23.998444034966128
1483,23.99921287777852
1523,23.999213240038306
1563,23.997962482296399
1603,23.998057136148945
1643,23.99796880675102
1683,23.99852145780126
1723,23.998680709265245
1763,23.998395162840109
1803,23.998020070918895
1843,23.998036614654028
2,1, 7,21, 0,18, 0.00,10.00,SummerDesignDay
8,21.343500800253975
10,371516212.01380679
2302,0.0
2,1, 7,21, 0,18,10.00,20.00,SummerDesignDay
8,21.29445517999728
10,369156113.9695657
2302,0.0
2,1, 7,21, 0,18,20.00,30.00,SummerDesignDay
8,21.24531961332415
10,366988124.42865929
2302,0.0
2,1, 7,21, 0,18,30.00,40.00,SummerDesignDay
8,21.196085706061159
10,364707819.67911157
2302,0.0
2,1, 7,21, 0,18,40.00,50.00,SummerDesignDay
8,21.146756926413827
10,362334622.9333582
2302,0.0
2,1, 7,21, 0,18,50.00,60.00,SummerDesignDay
8,21.097333755216899
10,359918859.8104968
2302,0.0
2,1, 7,21, 0,18, 0.00,60.00,SummerDesignDay
1003,23.99902099114892
1043,23.999600756475855
1083,23.99959574202005
1123,23.99880652580698
1163,23.99893498369828
1203,23.99880997179834
1243,23.99905357455478
1283,23.99926392748556
1323,23.999006645702598
1363,23.998894482230129
1403,23.998897426628106
1443,23.998761348478025
1483,23.999344135697144
1523,23.999344887980305
1563,23.998239609057035
1603,23.998344953519675
1643,23.99824697517236
1683,23.998841772821867
1723,23.998950956015795
1763,23.998715876087574
1803,23.998316308290059
1843,23.998326455236705
2,1, 7,21, 0,19, 0.00,10.00,SummerDesignDay
8,21.023019732832933
10,270786349.50827518
2302,0.0
2,1, 7,21, 0,19,10.00,20.00,SummerDesignDay
8,20.948490549703029
10,266206315.26791132
2302,0.0
2,1, 7,21, 0,19,20.00,30.00,SummerDesignDay
8,20.873745184382885
10,262526938.07548995
2302,0.0
2,1, 7,21, 0,19,30.00,40.00,SummerDesignDay
8,20.798782612519024
10,258788267.7210282
2302,0.0
2,1, 7,21, 0,19,40.00,50.00,SummerDesignDay
8,20.723605634987398
10,254960982.9758511
2302,0.0
2,1, 7,21, 0,19,50.00,60.00,SummerDesignDay
8,20.648205443782066
10,250629454.8233207
2302,0.0
2,1, 7,21, 0,19, 0.00,60.00,SummerDesignDay
1003,23.99960322285359
1043,23.999722887128596
1083,23.99971900021768
1123,23.99898351469797
1163,23.999269781394248
1203,23.998987016108189
1243,23.999636819135956
1283,23.9995027057894
1323,23.999591615350899
1363,23.99938829217831
1403,23.99940625609753
1443,23.99939215840581
1483,23.99953641699736
1523,23.99953668446003
1563,23.998591417265133
1603,23.99876899763684
1643,23.998598573110426
1683,23.99944762161139
1723,23.999292241128118
1763,23.999363155370675
1803,23.998534211986184
1843,23.99854639606538
2,1, 7,21, 0,20, 0.00,10.00,SummerDesignDay
8,20.59277197915242
10,198310985.9758366
2302,0.0
2,1, 7,21, 0,20,10.00,20.00,SummerDesignDay
8,20.537219972964399
10,193689971.26475389
2302,0.0
2,1, 7,21, 0,20,20.00,30.00,SummerDesignDay
8,20.48154799091199
10,189841049.0343639
2302,0.0
2,1, 7,21, 0,20,30.00,40.00,SummerDesignDay
8,20.425752225515759
10,186182291.0944407
2302,0.0
2,1, 7,21, 0,20,40.00,50.00,SummerDesignDay
8,20.369840248455387
10,183650383.27949918
2302,0.0
2,1, 7,21, 0,20,50.00,60.00,SummerDesignDay
8,20.313807280186916
10,181671117.36847813
2302,0.0
2,1, 7,21, 0,20, 0.00,60.00,SummerDesignDay
1003,23.999908761213889
1043,23.999815076758883
1083,23.999812863534218
1123,23.9993951264274
1163,23.99962292054936
1203,23.999400442473968
1243,23.999920258415373
1283,23.99968673328154
1323,23.999901362859985
1363,23.99950436275648
1403,23.999583470469145
1443,23.999731110697739
1483,23.99969316800198
1523,23.999693335867734
1563,23.999140983608457
1603,23.999335419799725
1643,23.99914646869517
1683,23.999757942702975
1723,23.99956500049649
1763,23.99971770256737
1803,23.99921517897558
1843,23.99923841153299
2,1, 7,21, 0,21, 0.00,10.00,SummerDesignDay
8,20.267875513679358
10,180056763.72407819
2302,0.0
2,1, 7,21, 0,21,10.00,20.00,SummerDesignDay
8,20.221856772507928
10,178637409.0878167
2302,0.0
2,1, 7,21, 0,21,20.00,30.00,SummerDesignDay
8,20.17575730066602
10,177363541.55247865
2302,0.0
2,1, 7,21, 0,21,30.00,40.00,SummerDesignDay
8,20.129575525226004
10,176206400.9068602
2302,0.0
2,1, 7,21, 0,21,40.00,50.00,SummerDesignDay
8,20.08331608345884
10,175131315.4684661
2302,0.0
2,1, 7,21, 0,21,50.00,60.00,SummerDesignDay
8,20.03696962431749
10,174121314.7887782
2302,0.0
2,1, 7,21, 0,21, 0.00,60.00,SummerDesignDay