Program Version,EnergyPlus, Version 9.1.0-fafb9d5652, YMD=2019.10.28 18:37
1,5,Environment Title[],Latitude[deg],Longitude[deg],Time Zone[],Elevation[m]
2,8,Day of Simulation[],Month[],Day of Month[],DST Indicator[1=yes 0=no],Hour[],StartMinute[],EndMinute[],DayType
3,5,Cumulative Day of Simulation[],Month[],Day of Month[],DST Indicator[1=yes 0=no],DayType  ! When Daily Report Variables Requested
4,2,Cumulative Days of Simulation[],Month[]  ! When Monthly Report Variables Requested
5,1,Cumulative Days of Simulation[] ! When Run Period Report Variables Requested
6,1,Calendar Year of Simulation[] ! When Annual Report Variables Requested
7,9,Environment,Site Outdoor Air Drybulb Temperature [C] !Monthly [Value,Min,Day,Hour,Minute,Max,Day,Hour,Minute]
8,1,Environment,Site Outdoor Air Wetbulb Temperature [C] !TimeStep
745,1,ALL_ST=WHOLEBUILDING_FL=STORY 1_SCH=A,Zone Air Temperature [C] !Hourly
746,7,ALL_ST=WHOLEBUILDING_FL=STORY 1_SCH=A,Zone Air Relative Humidity [%] !Daily [Value,Min,Hour,Minute,Max,Hour,Minute]
785,1,ALL_ST=WHOLEBUILDING_FL=STORY 1_SCH=A 1,Zone Air Temperature [C] !Hourly
786,7,ALL_ST=WHOLEBUILDING_FL=STORY 1_SCH=A 1,Zone Air Relative Humidity [%] !Daily [Value,Min,Hour,Minute,Max,Hour,Minute]
825,1,ALL_ST=WHOLEBUILDING_FL=STORY 1_SCH=A 2,Zone Air Temperature [C] !Hourly
826,7,ALL_ST=WHOLEBUILDING_FL=STORY 1_SCH=A 2,Zone Air Relative Humidity [%] !Daily [Value,Min,Hour,Minute,Max,Hour,Minute]
865,1,ALL_ST=WHOLEBUILDING_FL=STORY 1_SCH=A 3,Zone Air Temperature [C] !Hourly
866,7,ALL_ST=WHOLEBUILDING_FL=STORY 1_SCH=A 3,Zone Air Relative Humidity [%] !Daily [Value,Min,Hour,Minute,Max,Hour,Minute]
905,1,ALL_ST=WHOLEBUILDING_FL=STORY 1_SCH=A 4,Zone Air Temperature [C] !Hourly
906,7,ALL_ST=WHOLEBUILDING_FL=STORY 1_SCH=A 4,Zone Air Relative Humidity [%] !Daily [Value,Min,Hour,Minute,Max,Hour,Minute]
945,1,ALL_ST=WHOLEBUILDING_FL=STORY 2_SCH=A,Zone Air Temperature [C] !Hourly
946,7,ALL_ST=WHOLEBUILDING_FL=STORY 2_SCH=A,Zone Air Relative Humidity [%] !Daily [Value,Min,Hour,Minute,Max,Hour,Minute]
985,1,ALL_ST=WHOLEBUILDING_FL=STORY 2_SCH=A 1,Zone Air Temperature [C] !Hourly
986,7,ALL_ST=WHOLEBUILDING_FL=STORY 2_SCH=A 1,Zone Air Relative Humidity [%] !Daily [Value,Min,Hour,Minute,Max,Hour,Minute]
1025,1,ALL_ST=WHOLEBUILDING_FL=STORY 2_SCH=A 2,Zone Air Temperature [C] !Hourly
1026,7,ALL_ST=WHOLEBUILDING_FL=STORY 2_SCH=A 2,Zone Air Relative Humidity [%] !Daily [Value,Min,Hour,Minute,Max,Hour,Minute]
1065,1,ALL_ST=WHOLEBUILDING_FL=STORY 2_SCH=A 3,Zone Air Temperature [C] !Hourly
1066,7,ALL_ST=WHOLEBUILDING_FL=STORY 2_SCH=A 3,Zone Air Relative Humidity [%] !Daily [Value,Min,Hour,Minute,Max,Hour,Minute]
1105,1,ALL_ST=WHOLEBUILDING_FL=STORY 2_SCH=A 4,Zone Air Temperature [C] !Hourly
1106,7,ALL_ST=WHOLEBUILDING_FL=STORY 2_SCH=A 4,Zone Air Relative Humidity [%] !Daily [Value,Min,Hour,Minute,Max,Hour,Minute]
10,1,Electricity:Facility [J] !TimeStep
511,1,Gas:Facility [J] !TimeStep
End of Data Dictionary
1,OTTAWA=MACDONALD-CARTIER INTL ANN CLG .4% CONDNS DB=>MWB,  45.32, -75.67,  -5.00, 114.90
2,1, 7,21, 0, 1, 0.00,10.00,SummerDesignDay
8,19.2840458690032
10,70375217.45882099
511,76651.2327170184
2,1, 7,21, 0, 1,10.00,20.00,SummerDesignDay
8,19.25220058801155
10,70480564.30580771
511,76651.2327170184
2,1, 7,21, 0, 1,20.00,30.00,SummerDesignDay
8,19.2203165671003
10,70480564.30580771
511,76651.2327170184
2,1, 7,21, 0, 1,30.00,40.00,SummerDesignDay
8,19.188388626363016
10,70480564.30580771
511,76651.2327170184
2,1, 7,21, 0, 1,40.00,50.00,SummerDesignDay
8,19.15642770709394
10,70480564.30580771
511,76651.2327170184
2,1, 7,21, 0, 1,50.00,60.00,SummerDesignDay
8,19.124427397166604
10,70480564.30580771
511,17481248.33621816
2,1, 7,21, 0, 1, 0.00,60.00,SummerDesignDay
745,26.440979552130817
785,29.80511929206294
825,26.598514134704677
865,27.461382266164749
905,28.416111358970459
945,28.64041316623144
985,27.002192305052004
1025,29.56807978734405
1065,27.833923527968126
1105,26.82663539415009
2,1, 7,21, 0, 2, 0.00,10.00,SummerDesignDay
8,19.103070457286994
10,70585911.15279444
511,76651.2327170184
2,1, 7,21, 0, 2,10.00,20.00,SummerDesignDay
8,19.08170119193842
10,70585911.15279444
511,76651.2327170184
2,1, 7,21, 0, 2,20.00,30.00,SummerDesignDay
8,19.06030939273045
10,70585911.15279444
511,76651.2327170184
2,1, 7,21, 0, 2,30.00,40.00,SummerDesignDay
8,19.03890076386851
10,70585911.15279444
511,76651.2327170184
2,1, 7,21, 0, 2,40.00,50.00,SummerDesignDay
8,19.01747444558601
10,70585911.15279444
511,76651.2327170184
2,1, 7,21, 0, 2,50.00,60.00,SummerDesignDay
8,18.996036037989819
10,70585911.15279444
511,17311572.02212288
2,1, 7,21, 0, 2, 0.00,60.00,SummerDesignDay
745,26.379333970555494
785,29.687835957756677
825,26.4826177297282
865,27.377403110119287
905,28.345228106916168
945,28.605940910489506
985,26.88361016610294
1025,29.525175787676216
1065,27.768342536869157
1105,26.734602881489946
2,1, 7,21, 0, 3, 0.00,10.00,SummerDesignDay
8,18.97994058577143
10,70585911.15279444
511,76651.2327170184
2,1, 7,21, 0, 3,10.00,20.00,SummerDesignDay
8,18.96383509390068
10,70585911.15279444
511,76651.2327170184
2,1, 7,21, 0, 3,20.00,30.00,SummerDesignDay
8,18.947724870466826
10,70585911.15279444
511,76651.2327170184
2,1, 7,21, 0, 3,30.00,40.00,SummerDesignDay
8,18.931599991201066
10,70585911.15279444
511,76651.2327170184
2,1, 7,21, 0, 3,40.00,50.00,SummerDesignDay
8,18.915470425479847
10,70585911.15279444
511,17574499.38835322
2,1, 7,21, 0, 3,50.00,60.00,SummerDesignDay
8,18.8993255989201
10,70585911.15279444
511,76651.2327170184
2,1, 7,21, 0, 3, 0.00,60.00,SummerDesignDay
745,26.317129241198776
785,29.556722677937967
825,26.367327587496509
865,27.29499580923608
905,28.275155067913674
945,28.572202547915827
985,26.76121352481105
1025,29.482654190165375
1065,27.666261922248024
1105,26.65691228555571
2,1, 7,21, 0, 4, 0.00,10.00,SummerDesignDay
8,18.883176400800605
10,70585911.15279444
511,76651.2327170184
2,1, 7,21, 0, 4,10.00,20.00,SummerDesignDay
8,18.867011710849643
10,70585911.15279444
511,76651.2327170184
2,1, 7,21, 0, 4,20.00,30.00,SummerDesignDay
8,18.850837592647797
10,70585911.15279444
511,76651.2327170184
2,1, 7,21, 0, 4,30.00,40.00,SummerDesignDay
8,18.834658360362007
10,70585911.15279444
511,76651.2327170184
2,1, 7,21, 0, 4,40.00,50.00,SummerDesignDay
8,18.8184648850153
10,70691257.99978116
511,17447661.226060358
2,1, 7,21, 0, 4,50.00,60.00,SummerDesignDay
8,18.8022655410338
10,70691257.99978116
511,76651.2327170184
2,1, 7,21, 0, 4, 0.00,60.00,SummerDesignDay
745,26.257869401022476
785,29.427901239070395
825,26.256553707572754
865,27.205299471744998
905,28.20669951781298
945,28.53982998412168
985,26.64370684526237
1025,29.441941530646458
1065,27.556085346188018
1105,26.588373041695918
2,1, 7,21, 0, 5, 0.00,10.00,SummerDesignDay
8,18.79145567867417
10,70691257.99978116
511,76651.2327170184
2,1, 7,21, 0, 5,10.00,20.00,SummerDesignDay
8,18.780646332866213
10,70691257.99978116
511,76651.2327170184
2,1, 7,21, 0, 5,20.00,30.00,SummerDesignDay
8,18.76983296444122
10,70691257.99978116
511,76651.2327170184
2,1, 7,21, 0, 5,30.00,40.00,SummerDesignDay
8,18.75901007085189
10,70796604.84676789
511,3806566.166933322
2,1, 7,21, 0, 5,40.00,50.00,SummerDesignDay
8,18.7481869937485
10,70691257.99978116
511,14448254.532298776
2,1, 7,21, 0, 5,50.00,60.00,SummerDesignDay
8,18.737365749092537
10,70585911.15279444
511,76651.2327170184
2,1, 7,21, 0, 5, 0.00,60.00,SummerDesignDay
745,26.20016379345378
785,29.311324943636078
825,26.18776067084977
865,27.11771523632253
905,28.217991556265817
945,28.587117872265023
985,26.588974330748007
1025,29.416913942420679
1065,27.46559745644974
1105,26.533429509065426
2,1, 7,21, 0, 6, 0.00,10.00,SummerDesignDay
8,18.7481869937485
10,70480564.30580771
511,76651.2327170184
2,1, 7,21, 0, 6,10.00,20.00,SummerDesignDay
8,18.75901007085189
10,70540307.1241152
511,76651.2327170184
2,1, 7,21, 0, 6,20.00,30.00,SummerDesignDay
8,18.76983296444122
10,70480564.30580771
511,76651.2327170184
2,1, 7,21, 0, 6,30.00,40.00,SummerDesignDay
8,18.780646332866213
10,70480564.30580771
511,17544495.84443014
2,1, 7,21, 0, 6,40.00,50.00,SummerDesignDay
8,18.79145567867417
10,70480564.30580771
511,76651.2327170184
2,1, 7,21, 0, 6,50.00,60.00,SummerDesignDay
8,18.8022655410338
10,70431020.30004871
511,76651.2327170184
2,1, 7,21, 0, 6, 0.00,60.00,SummerDesignDay
745,26.16563218769844
785,29.30436521244688
825,26.504596583035977
865,27.153963516303155
905,29.14369248004836
945,29.30630512190245
985,27.167998645999789
1025,29.402261312421247
1065,27.653979523405565
1105,26.645042145178694
2,1, 7,21, 0, 7, 0.00,10.00,SummerDesignDay
8,18.840052605786814
10,181669609.19758133
511,76651.23271701842
2,1, 7,21, 0, 7,10.00,20.00,SummerDesignDay
8,18.87778619489805
10,139504938.46442334
511,76651.2327170184
2,1, 7,21, 0, 7,20.00,30.00,SummerDesignDay
8,18.915470425479847
10,125317587.62349813
511,76651.2327170184
2,1, 7,21, 0, 7,30.00,40.00,SummerDesignDay
8,18.953096118062495
10,105649766.39069718
511,17415664.519966078
2,1, 7,21, 0, 7,40.00,50.00,SummerDesignDay
8,18.99066883495391
10,110408850.69167495
511,76651.2327170184
2,1, 7,21, 0, 7,50.00,60.00,SummerDesignDay
8,19.02819215483863
10,109419515.52500585
511,76651.2327170184
2,1, 7,21, 0, 7, 0.00,60.00,SummerDesignDay
745,24.177874082478913
785,24.158280312835488
825,24.175817028945788
865,24.125513527132524
905,24.38930319018512
945,24.304781970415634
985,24.14810604801576
1025,24.08895946379653
1065,24.082638372066897
1105,24.119810220395995
2,1, 7,21, 0, 8, 0.00,10.00,SummerDesignDay
8,19.119090922986229
10,158889293.16001363
511,76651.2327170184
2,1, 7,21, 0, 8,10.00,20.00,SummerDesignDay
8,19.209676482065853
10,165174774.96545527
511,18240742.142306046
2,1, 7,21, 0, 8,20.00,30.00,SummerDesignDay
8,19.299951906634847
10,169303456.1338894
511,76651.2327170184
2,1, 7,21, 0, 8,30.00,40.00,SummerDesignDay
8,19.389928824990219
10,180826976.21831165
511,76651.2327170184
2,1, 7,21, 0, 8,40.00,50.00,SummerDesignDay
8,19.4795823892733
10,183416052.15296526
511,18281258.36276554
2,1, 7,21, 0, 8,50.00,60.00,SummerDesignDay
8,19.568935475929295
10,184224598.50062333
511,76651.2327170184
2,1, 7,21, 0, 8, 0.00,60.00,SummerDesignDay
745,23.999669538259309
785,23.99988281004742
825,23.999478250934194
865,23.99983592262736
905,23.99866461373408
945,23.998158431827439
985,23.999399585981768
1025,23.99996615716977
1065,23.99980991409656
1105,23.999556407167458
2,1, 7,21, 0, 9, 0.00,10.00,SummerDesignDay
8,19.66844507688812
10,312758691.4604513
511,26747130.154408914
2,1, 7,21, 0, 9,10.00,20.00,SummerDesignDay
8,19.767573179707669
10,317448263.2126971
511,28410762.046728679
2,1, 7,21, 0, 9,20.00,30.00,SummerDesignDay
8,19.866330746445795
10,315768223.9164738
511,28418260.673372017
2,1, 7,21, 0, 9,30.00,40.00,SummerDesignDay
8,19.964711871061558
10,316953624.29173579
511,25026202.71485548
2,1, 7,21, 0, 9,40.00,50.00,SummerDesignDay
8,20.062727728864816
10,318071975.74041679
511,24748879.83419064
2,1, 7,21, 0, 9,50.00,60.00,SummerDesignDay
8,20.160375627757714
10,319328210.4352122
511,24731436.691935116
2,1, 7,21, 0, 9, 0.00,60.00,SummerDesignDay
745,23.99844979245837
785,23.999642461803636
825,23.998694993118546
865,23.998895152495554
905,23.998738978210388
945,23.998049121058235
985,23.99819776541543
1025,23.999379557457066
1065,23.998668630103297
1105,23.997679633436424
2,1, 7,21, 0,10, 0.00,10.00,SummerDesignDay
8,20.247432286023
10,347068992.43818029
511,24713516.39003934
2,1, 7,21, 0,10,10.00,20.00,SummerDesignDay
8,20.334198251055687
10,348741620.02108409
511,24695248.403987048
2,1, 7,21, 0,10,20.00,30.00,SummerDesignDay
8,20.420674889330156
10,350012669.3661565
511,24676623.0680214
2,1, 7,21, 0,10,30.00,40.00,SummerDesignDay
8,20.50686410461129
10,351313838.1299917
511,24657630.048072384
2,1, 7,21, 0,10,40.00,50.00,SummerDesignDay
8,20.59277197915242
10,352536839.13073858
511,27181712.43303814
2,1, 7,21, 0,10,50.00,60.00,SummerDesignDay
8,20.67839100058158
10,353628063.1703649
511,28381180.03218209
2,1, 7,21, 0,10, 0.00,60.00,SummerDesignDay
745,23.998029632455084
785,23.99944294273736
825,23.998251711140978
865,23.998507321888128
905,23.998641702158623
945,23.997864361374089
985,23.997689687746733
1025,23.9989996162338
1065,23.99810279320955
1105,23.9973532131565
2,1, 7,21, 0,11, 0.00,10.00,SummerDesignDay
8,20.75370382828009
10,354515680.70582947
511,55327145.18402183
2,1, 7,21, 0,11,10.00,20.00,SummerDesignDay
8,20.82879725584293
10,356264600.1196539
511,39859524.632179427
2,1, 7,21, 0,11,20.00,30.00,SummerDesignDay
8,20.90366855164364
10,357185556.6550767
511,48811013.27746369
2,1, 7,21, 0,11,30.00,40.00,SummerDesignDay
8,20.978327197140595
10,358158191.7066868
511,50482365.44519934
2,1, 7,21, 0,11,40.00,50.00,SummerDesignDay
8,21.052770435649987
10,359084297.8894315
511,39847730.67899472
2,1, 7,21, 0,11,50.00,60.00,SummerDesignDay
8,21.126998315025806
10,360051333.7574248
511,58586362.619743969
2,1, 7,21, 0,11, 0.00,60.00,SummerDesignDay
745,23.998089970053475
785,23.99935684959703
825,23.998132197320989
865,23.99815613257219
905,23.99876366612894
945,23.9980766999104
985,23.99745791637613
1025,23.99884098020581
1065,23.997629534072673
1105,23.997347279580525
2,1, 7,21, 0,12, 0.00,10.00,SummerDesignDay
8,21.176364764512436
10,360716193.3293334
511,39863422.32691406
2,1, 7,21, 0,12,10.00,20.00,SummerDesignDay
8,21.225636252128049
10,361345565.45397248
511,41109680.58845251
2,1, 7,21, 0,12,20.00,30.00,SummerDesignDay
8,21.27481408813442
10,361991234.0660049
511,57530575.38005167
2,1, 7,21, 0,12,30.00,40.00,SummerDesignDay
8,21.32389714161367
10,362567437.32292196
511,39853685.720083918
2,1, 7,21, 0,12,40.00,50.00,SummerDesignDay
8,21.372882039030619
10,363119295.8821296
511,55387021.11369039
2,1, 7,21, 0,12,50.00,60.00,SummerDesignDay
8,21.421778222706306
10,363626098.337937
511,43604227.288848038
2,1, 7,21, 0,12, 0.00,60.00,SummerDesignDay
745,23.997995077762057
785,23.999293456195259
825,23.997949330851684
865,23.997833195875889
905,23.99890902201682
945,23.998334648941684
985,23.997226185471065
1025,23.99873894108151
1065,23.997295461627858
1105,23.997175696313425
2,1, 7,21, 0,13, 0.00,10.00,SummerDesignDay
8,21.460829759656176
10,361834298.2770921
511,39841371.43515474
2,1, 7,21, 0,13,10.00,20.00,SummerDesignDay
8,21.499817003159384
10,362210167.86311516
511,58586362.619743969
2,1, 7,21, 0,13,20.00,30.00,SummerDesignDay
8,21.53875017563149
10,362590695.10036358
511,39858867.51384555
2,1, 7,21, 0,13,30.00,40.00,SummerDesignDay
8,21.57761871831439
10,362964709.6430906
511,48024782.78365716
2,1, 7,21, 0,13,40.00,50.00,SummerDesignDay
8,21.616433450967234
10,363399372.163563
511,51250144.05937222
2,1, 7,21, 0,13,50.00,60.00,SummerDesignDay
8,21.655184624488759
10,363847235.0569404
511,39848399.674969758
2,1, 7,21, 0,13, 0.00,60.00,SummerDesignDay
745,23.99824402686338
785,23.999363232802055
825,23.998103573252533
865,23.998102854806047
905,23.99907427340088
945,23.998542263173716
985,23.99740294716115
1025,23.998817633707529
1065,23.99752341034984
1105,23.997443218136213
2,1, 7,21, 0,14, 0.00,10.00,SummerDesignDay
8,21.67937576104208
10,364267666.8836467
511,58586362.619743969
2,1, 7,21, 0,14,10.00,20.00,SummerDesignDay
8,21.703544513972305
10,364767647.9327412
511,39863942.06761836
2,1, 7,21, 0,14,20.00,30.00,SummerDesignDay
8,21.727690125397957
10,365337821.66555508
511,40312191.632493939
2,1, 7,21, 0,14,30.00,40.00,SummerDesignDay
8,21.751812391480358
10,366026346.14529326
511,58195123.84289213
2,1, 7,21, 0,14,40.00,50.00,SummerDesignDay
8,21.7759121945202
10,366745631.1538386
511,39854235.11780705
2,1, 7,21, 0,14,50.00,60.00,SummerDesignDay
8,21.799989308895414
10,367531115.7237438
511,54663321.57543358
2,1, 7,21, 0,14, 0.00,60.00,SummerDesignDay
745,23.998339382270257
785,23.999239690114025
825,23.99819044412943
865,23.998373773213449
905,23.999142424963549
945,23.99862606446585
985,23.997536677000878
1025,23.99867295492514
1065,23.99778234513138
1105,23.99764045050384
2,1, 7,21, 0,15, 0.00,10.00,SummerDesignDay
8,21.799989308895414
10,369937989.61547979
511,44406899.16314181
2,1, 7,21, 0,15,10.00,20.00,SummerDesignDay
8,21.799989308895414
10,370785879.5415516
511,39842153.11496678
2,1, 7,21, 0,15,20.00,30.00,SummerDesignDay
8,21.799989308895414
10,371574406.96325948
511,58586362.619743969
2,1, 7,21, 0,15,30.00,40.00,SummerDesignDay
8,21.799989308895414
10,372218921.96129748
511,39859394.91483234
2,1, 7,21, 0,15,40.00,50.00,SummerDesignDay
8,21.799989308895414
10,372654447.49025937
511,47236134.874793607
2,1, 7,21, 0,15,50.00,60.00,SummerDesignDay
8,21.799989308895414
10,372896291.13560196
511,52009635.184455428
2,1, 7,21, 0,15, 0.00,60.00,SummerDesignDay
745,23.99802530946103
785,23.99855094933999
825,23.99794927181983
865,23.998324885974566
905,23.99904305330625
945,23.998546388892536
985,23.99738004511021
1025,23.997868998872219
1065,23.997749008082395
1105,23.99746060309231
2,1, 7,21, 0,16, 0.00,10.00,SummerDesignDay
8,21.771094855856704
10,372649097.5644201
511,39849055.126482199
2,1, 7,21, 0,16,10.00,20.00,SummerDesignDay
8,21.742168014681356
10,372250628.159492
511,58586362.619743969
2,1, 7,21, 0,16,20.00,30.00,SummerDesignDay
8,21.71320780280698
10,371706894.23586216
511,39864460.32484745
2,1, 7,21, 0,16,30.00,40.00,SummerDesignDay
8,21.68421463192507
10,371020351.3931454
511,39834961.29528934
2,1, 7,21, 0,16,40.00,50.00,SummerDesignDay
8,21.655184624488759
10,370241248.1899846
511,58586362.619743969
2,1, 7,21, 0,16,50.00,60.00,SummerDesignDay
8,21.6261256071541
10,369329156.60355499
511,39854773.66432377
2,1, 7,21, 0,16, 0.00,60.00,SummerDesignDay
745,23.997807153075074
785,23.998145183658449
825,23.99779583618934
865,23.998377171980967
905,23.99901309122282
945,23.998576418595254
985,23.997393691213163
1025,23.99747924031892
1065,23.99794360464655
1105,23.99744729937245
2,1, 7,21, 0,17, 0.00,10.00,SummerDesignDay
8,21.587330220761357
10,368223228.6286991
511,34969712.68981889
2,1, 7,21, 0,17,10.00,20.00,SummerDesignDay
8,21.548471336507889
10,366680088.4029814
511,36572122.745081808
2,1, 7,21, 0,17,20.00,30.00,SummerDesignDay
8,21.509558190151649
10,365250885.80250295
511,41213696.227761518
2,1, 7,21, 0,17,30.00,40.00,SummerDesignDay
8,21.470581299934044
10,363739505.41292837
511,41246868.24738836
2,1, 7,21, 0,17,40.00,50.00,SummerDesignDay
8,21.431549204917386
10,362211484.6626447
511,41284187.706793908
2,1, 7,21, 0,17,50.00,60.00,SummerDesignDay
8,21.392452600030727
10,360678843.72549948
511,36293236.76408381
2,1, 7,21, 0,17, 0.00,60.00,SummerDesignDay
745,23.99777133509045
785,23.998087813514
825,23.997881118087503
865,23.998521115994483
905,23.99908961839402
945,23.99874579540619
985,23.997692951848678
1025,23.997381940579918
1065,23.998252745104116
1105,23.997712656812767
2,1, 7,21, 0,18, 0.00,10.00,SummerDesignDay
8,21.343500800253975
10,345514297.42717227
511,26011114.17233072
2,1, 7,21, 0,18,10.00,20.00,SummerDesignDay
8,21.29445517999728
10,342930471.8527623
511,24734151.143936289
2,1, 7,21, 0,18,20.00,30.00,SummerDesignDay
8,21.24531961332415
10,340900265.97188386
511,24716847.039040828
2,1, 7,21, 0,18,30.00,40.00,SummerDesignDay
8,21.196085706061159
10,338821982.8166547
511,24698695.401460124
2,1, 7,21, 0,18,40.00,50.00,SummerDesignDay
8,21.146756926413827
10,336810842.1249786
511,24680137.707861719
2,1, 7,21, 0,18,50.00,60.00,SummerDesignDay
8,21.097333755216899
10,334930529.6649082
511,24661214.32825187
2,1, 7,21, 0,18, 0.00,60.00,SummerDesignDay
745,23.998159898469216
785,23.998526747677049
825,23.9982016361694
865,23.99881944943021
905,23.999282260616963
945,23.999035285560337
985,23.99816868762579
1025,23.997924120338785
1065,23.9986744500202
1105,23.998289494518958
2,1, 7,21, 0,19, 0.00,10.00,SummerDesignDay
8,21.023019732832933
10,245659143.15298806
511,20974709.059014407
2,1, 7,21, 0,19,10.00,20.00,SummerDesignDay
8,20.948490549703029
10,241318262.30885796
511,21983177.696331949
2,1, 7,21, 0,19,20.00,30.00,SummerDesignDay
8,20.873745184382885
10,238584867.266256
511,22064007.6373335
2,1, 7,21, 0,19,30.00,40.00,SummerDesignDay
8,20.798782612519024
10,235696052.20162178
511,3431175.01451893
2,1, 7,21, 0,19,40.00,50.00,SummerDesignDay
8,20.723605634987398
10,232930661.2430794
511,19411230.81627938
2,1, 7,21, 0,19,50.00,60.00,SummerDesignDay
8,20.648205443782066
10,230190237.8259978
511,21984308.87054558
2,1, 7,21, 0,19, 0.00,60.00,SummerDesignDay
745,23.999196027765206
785,23.999057898319298
825,23.99885146137866
865,23.999339729198696
905,23.999590504246205
945,23.999426863000214
985,23.998831211144365
1025,23.998558046008815
1065,23.999236348625389
1105,23.999209376818894
2,1, 7,21, 0,20, 0.00,10.00,SummerDesignDay
8,20.59277197915242
10,178246546.5027274
511,7556818.26110904
2,1, 7,21, 0,20,10.00,20.00,SummerDesignDay
8,20.537219972964399
10,174377256.16972376
511,13828400.517618645
2,1, 7,21, 0,20,20.00,30.00,SummerDesignDay
8,20.48154799091199
10,171561435.489743
511,19936692.93381019
2,1, 7,21, 0,20,30.00,40.00,SummerDesignDay
8,20.425752225515759
10,168642740.46911044
511,76651.2327170184
2,1, 7,21, 0,20,40.00,50.00,SummerDesignDay
8,20.369840248455387
10,166779969.72108159
511,19882155.241574907
2,1, 7,21, 0,20,50.00,60.00,SummerDesignDay
8,20.313807280186916
10,165350976.10086198
511,76651.2327170184
2,1, 7,21, 0,20, 0.00,60.00,SummerDesignDay
745,23.9997025917224
785,23.999632262957318
825,23.999466486065754
865,23.999671705355039
905,23.99978697137006
945,23.999683937302906
985,23.999411372835266
1025,23.99939235590007
1065,23.999601570503044
1105,23.999663275234
2,1, 7,21, 0,21, 0.00,10.00,SummerDesignDay
8,20.267875513679358
10,164164792.21530677
511,19834197.117864323
2,1, 7,21, 0,21,10.00,20.00,SummerDesignDay
8,20.221856772507928
10,163086986.6220692
511,199079.97167190043
2,1, 7,21, 0,21,20.00,30.00,SummerDesignDay
8,20.17575730066602
10,162083221.86316435
511,19695166.793857784
2,1, 7,21, 0,21,30.00,40.00,SummerDesignDay
8,20.129575525226004
10,161148540.98756925
511,14886565.470245468
2,1, 7,21, 0,21,40.00,50.00,SummerDesignDay
8,20.08331608345884
10,160236878.60431034
511,6384571.291037051
2,1, 7,21, 0,21,50.00,60.00,SummerDesignDay
8,20.03696962431749
10,159380281.5966322
511,19903819.62513616
2,1, 7,21, 0,21, 0.00,60.00,SummerDesignDay
745,23.999821738740406
785,23.99978704865597
825,23.999733096103513
865,23.999774647239364
905,23.99984767600903
945,23.999774198102487
985,23.99968774496727
1025,23.999673357954735
1065,23.999724673237198
1105,23.999758140091769
2,1, 7,21, 0,22, 0.00,10.00,SummerDesignDay
8,19.99054090879275
10,78039548.13347486
511,76651.2327170184
2,1, 7,21, 0,22,10.00,20.00,SummerDesignDay
8,19.944033557607388
10,77989915.45713544
511,23988840.12378386
2,1, 7,21, 0,22,20.00,30.00,SummerDesignDay
8,19.89743885871503
10,76853251.99028939
511,3584014.4345009976
2,1, 7,21, 0,22,30.00,40.00,SummerDesignDay
8,19.850760861623937
10,76206920.30239189
511,25040127.945609958
2,1, 7,21, 0,22,40.00,50.00,SummerDesignDay
8,19.804003776854694
10,77745327.47641507
511,8109283.063256904
2,1, 7,21, 0,22,50.00,60.00,SummerDesignDay
8,19.757157595162949
10,77023930.19848064
511,13507097.50710843
2,1, 7,21, 0,22, 0.00,60.00,SummerDesignDay
745,25.351297855158618
785,27.741145694883259
825,25.77642943799003
865,26.278250433696653
905,26.856012665581678
945,26.825961406709629
985,25.93950281166103
1025,27.40652918399888
1065,26.389447940498675
1105,25.625941499546717
2,1, 7,21, 0,23, 0.00,10.00,SummerDesignDay
8,19.720666551636989
10,76244696.32808845
511,76651.2327170184
2,1, 7,21, 0,23,10.00,20.00,SummerDesignDay
8,19.684119477065886
10,77099489.12001948
511,76651.2327170184
2,1, 7,21, 0,23,20.00,30.00,SummerDesignDay
8,19.647526513618759
10,76937665.95654895
511,17424961.798936927
2,1, 7,21, 0,23,30.00,40.00,SummerDesignDay
8,19.6108822727292
10,76229414.48990482
511,76651.2327170184
2,1, 7,21, 0,23,40.00,50.00,SummerDesignDay
8,19.574181717726309
10,74018878.07167955
511,6324499.22014521
2,1, 7,21, 0,23,50.00,60.00,SummerDesignDay
8,19.537434025172329
10,74089147.68635799
511,76651.2327170184
2,1, 7,21, 0,23, 0.00,60.00,SummerDesignDay
745,26.431676104610874
785,29.62796246854091
825,26.683308832176367
865,27.468093264846308
905,28.342927152575429
945,28.45542248539846
985,27.042857410062188
1025,29.33827599930216
1065,27.762120200383096
1105,26.933629465938073
2,1, 7,21, 0,24, 0.00,10.00,SummerDesignDay
8,19.50063519373203
10,68813575.39978117
511,76651.2327170184
2,1, 7,21, 0,24,10.00,20.00,SummerDesignDay
8,19.463780045562748
10,68708228.55279444
511,7447071.825435056
2,1, 7,21, 0,24,20.00,30.00,SummerDesignDay
8,19.42687776521098
10,70269870.61183426
511,11316382.852397269
2,1, 7,21, 0,24,30.00,40.00,SummerDesignDay
8,19.389928824990219
10,70375217.45882099
511,76651.2327170184
2,1, 7,21, 0,24,40.00,50.00,SummerDesignDay
8,19.352911582935034
10,70375217.45882099
511,76651.2327170184
2,1, 7,21, 0,24,50.00,60.00,SummerDesignDay
8,19.31585289854638
10,70375217.45882099
511,76651.2327170184
2,1, 7,21, 0,24, 0.00,60.00,SummerDesignDay
745,26.48953702314741
785,29.861916500043646
825,26.692220921619208
865,27.5351724444554
905,28.489137758704488
945,28.65586699139138
985,27.07603659602192
1025,29.589144033943158
1065,27.867758738241635
1105,26.94267998842665
3,1, 7,21, 0,SummerDesignDay
746,53.40281275196341,47.38653323838847,22,30,63.42441474050027, 7,30
786,45.968366839977019,37.005330889726099,22,45,60.7283049085572, 7, 5
826,52.06282390102472,46.125575043550657,22,20,63.52714780294594, 7, 8
866,51.16038515681433,44.50054467449836,22,45,66.31467296469819, 7,60
906,46.72104767334741,41.26954763427138,22,45,57.760040629674637, 7, 8
946,47.598025702705289,42.73694130835521, 9,60,57.92950106702347, 7, 7
986,52.87549367835652,48.823414370256497,14,20,64.58233552752145, 7,60
1026,48.153430738608388,40.11536507793277,22,45,67.97861591155987, 7,60
1066,51.303073499190187,46.162212016863417,22,45,67.13297410216548, 7,60
1106,53.87149275587824,49.44854403707255,14,30,66.31725382441116, 7,60
4,1, 7
7,25.183875000000005,20.5,21, 5,60,30.6,21,14,60
1,OTTAWA=MACDONALD-CARTIER INTL ANN HTG 99.6% CONDNS DB,  45.32, -75.67,  -5.00, 114.90
2,1, 1,21, 0, 1, 0.00,10.00,WinterDesignDay
8,-24.2
10,70796604.84676789
511,321711617.5597373
2,1, 1,21, 0, 1,10.00,20.00,WinterDesignDay
8,-24.2
10,70796604.84676789
511,322762869.11915186
2,1, 1,21, 0, 1,20.00,30.00,WinterDesignDay
8,-24.2
10,70796604.84676789
511,323782372.0169841
2,1, 1,21, 0, 1,30.00,40.00,WinterDesignDay
8,-24.2
10,70796604.84676789
511,324769777.01910558
2,1, 1,21, 0, 1,40.00,50.00,WinterDesignDay
8,-24.2
10,70796604.84676789
511,343316948.74902889
2,1, 1,21, 0, 1,50.00,60.00,WinterDesignDay
8,-24.2
10,70796604.84676789
511,327692981.48442867
2,1, 1,21, 0, 1, 0.00,60.00,WinterDesignDay
745,18.06656621397383
785,18.00005647253355
825,18.00009745403908
865,18.000067522429374
905,18.000056016087453
945,18.000036819956539
985,18.000061524495388
1025,18.000036047847315
1065,18.00004461682862
1105,18.000044644072099
2,1, 1,21, 0, 2, 0.00,10.00,WinterDesignDay
8,-24.2
10,70796604.84676789
511,329879299.363369
2,1, 1,21, 0, 2,10.00,20.00,WinterDesignDay
8,-24.2
10,70796604.84676789
511,330867770.7401659
2,1, 1,21, 0, 2,20.00,30.00,WinterDesignDay
8,-24.2
10,70796604.84676789
511,332460315.69096627
2,1, 1,21, 0, 2,30.00,40.00,WinterDesignDay
8,-24.2
10,70796604.84676789
511,351310753.058025
2,1, 1,21, 0, 2,40.00,50.00,WinterDesignDay
8,-24.2
10,70796604.84676789
511,335227277.0685152
2,1, 1,21, 0, 2,50.00,60.00,WinterDesignDay
8,-24.2
10,70796604.84676789
511,336585714.18394157
2,1, 1,21, 0, 2, 0.00,60.00,WinterDesignDay
745,17.999931221538529
785,18.000047736447738
825,18.000077383549074
865,18.00005537280907
905,18.000047238967963
945,18.00003000718754
985,18.00004806180241
1025,18.000029510091396
1065,18.000035748677197
1105,18.000034614056586
2,1, 1,21, 0, 3, 0.00,10.00,WinterDesignDay
8,-24.2
10,70796604.84676789
511,337932948.5170543
2,1, 1,21, 0, 3,10.00,20.00,WinterDesignDay
8,-24.2
10,70796604.84676789
511,355570496.3420652
2,1, 1,21, 0, 3,20.00,30.00,WinterDesignDay
8,-24.2
10,70796604.84676789
511,342374082.1118163
2,1, 1,21, 0, 3,30.00,40.00,WinterDesignDay
8,-24.2
10,70796604.84676789
511,341825183.4840398
2,1, 1,21, 0, 3,40.00,50.00,WinterDesignDay
8,-24.2
10,70796604.84676789
511,343084787.7863006
2,1, 1,21, 0, 3,50.00,60.00,WinterDesignDay
8,-24.2
10,70796604.84676789
511,344324688.06363239
2,1, 1,21, 0, 3, 0.00,60.00,WinterDesignDay
745,17.99993575342809
785,18.00003826399309
825,18.00005981865574
865,18.000043499336138
905,18.00003777837627
945,18.00002501873784
985,18.000039418612404
1025,18.00002464620672
1065,18.000029642947309
1105,18.000027993780468
2,1, 1,21, 0, 4, 0.00,10.00,WinterDesignDay
8,-24.2
10,70796604.84676789
511,363118951.04202416
2,1, 1,21, 0, 4,10.00,20.00,WinterDesignDay
8,-24.2
10,70796604.84676789
511,346731687.20004168
2,1, 1,21, 0, 4,20.00,30.00,WinterDesignDay
8,-24.2
10,70796604.84676789
511,347894444.5291152
2,1, 1,21, 0, 4,30.00,40.00,WinterDesignDay
8,-24.2
10,70796604.84676789
511,349048850.81675496
2,1, 1,21, 0, 4,40.00,50.00,WinterDesignDay
8,-24.2
10,70796604.84676789
511,350183949.2127199
2,1, 1,21, 0, 4,50.00,60.00,WinterDesignDay
8,-24.2
10,70796604.84676789
511,368715078.5196308
2,1, 1,21, 0, 4, 0.00,60.00,WinterDesignDay
745,17.999954218638505
785,18.00003172438128
825,18.00004949949974
865,18.000035891014038
905,18.00003116136698
945,18.000021369951907
985,18.000033924369217
1025,18.00002102562152
1065,18.000025465557426
1105,18.000023713925839
2,1, 1,21, 0, 5, 0.00,10.00,WinterDesignDay
8,-24.2
10,70796604.84676789
511,352376549.1352036
2,1, 1,21, 0, 5,10.00,20.00,WinterDesignDay
8,-24.2
10,70796604.84676789
511,353445504.08555498
2,1, 1,21, 0, 5,20.00,30.00,WinterDesignDay
8,-24.2
10,70796604.84676789
511,354500433.86134317
2,1, 1,21, 0, 5,30.00,40.00,WinterDesignDay
8,-24.2
10,70796604.84676789
511,373212632.0184794
2,1, 1,21, 0, 5,40.00,50.00,WinterDesignDay
8,-24.2
10,70796604.84676789
511,356549737.53171047
2,1, 1,21, 0, 5,50.00,60.00,WinterDesignDay
8,-24.2
10,70796604.84676789
511,357528860.2661644
2,1, 1,21, 0, 5, 0.00,60.00,WinterDesignDay