Program Version,EnergyPlus, Version 8.9.0-eba93e8e1b, YMD=2018.11.01 15:48
1,5,Environment Title[],Latitude[deg],Longitude[deg],Time Zone[],Elevation[m]
2,8,Day of Simulation[],Month[],Day of Month[],DST Indicator[1=yes 0=no],Hour[],StartMinute[],EndMinute[],DayType
3,5,Cumulative Day of Simulation[],Month[],Day of Month[],DST Indicator[1=yes 0=no],DayType  ! When Daily Report Variables Requested
4,2,Cumulative Days of Simulation[],Month[]  ! When Monthly Report Variables Requested
5,1,Cumulative Days of Simulation[] ! When Run Period Report Variables Requested
6,1,Calendar Year of Simulation[] ! When Annual Report Variables Requested
7,9,Environment,Site Outdoor Air Drybulb Temperature [C] !Monthly [Value,Min,Day,Hour,Minute,Max,Day,Hour,Minute]
8,1,Environment,Site Outdoor Air Wetbulb Temperature [C] !TimeStep
357,1,ATTIC ZN,Zone Air Temperature [C] !Hourly
358,7,ATTIC ZN,Zone Air Relative Humidity [%] !Daily [Value,Min,Hour,Minute,Max,Hour,Minute]
397,1,CORE_ZN ZN,Zone Air Temperature [C] !Hourly
398,7,CORE_ZN ZN,Zone Air Relative Humidity [%] !Daily [Value,Min,Hour,Minute,Max,Hour,Minute]
437,1,PERIMETER_ZN_1 ZN,Zone Air Temperature [C] !Hourly
438,7,PERIMETER_ZN_1 ZN,Zone Air Relative Humidity [%] !Daily [Value,Min,Hour,Minute,Max,Hour,Minute]
477,1,PERIMETER_ZN_2 ZN,Zone Air Temperature [C] !Hourly
478,7,PERIMETER_ZN_2 ZN,Zone Air Relative Humidity [%] !Daily [Value,Min,Hour,Minute,Max,Hour,Minute]
517,1,PERIMETER_ZN_3 ZN,Zone Air Temperature [C] !Hourly
518,7,PERIMETER_ZN_3 ZN,Zone Air Relative Humidity [%] !Daily [Value,Min,Hour,Minute,Max,Hour,Minute]
557,1,PERIMETER_ZN_4 ZN,Zone Air Temperature [C] !Hourly
558,7,PERIMETER_ZN_4 ZN,Zone Air Relative Humidity [%] !Daily [Value,Min,Hour,Minute,Max,Hour,Minute]
10,1,Electricity:Facility [J] !TimeStep
708,1,DistrictCooling:Facility [J] !TimeStep
671,1,DistrictHeating:Facility [J] !TimeStep
End of Data Dictionary
1,VICTORIA INTL AP ANN CLG .4% CONDNS DB=>MWB,  48.65,-123.43,  -8.00,  19.50
2,1, 7,21, 0, 1, 0.00,10.00,SummerDesignDay
8,14.721558796240082
10,588883.2432939032
671,0.0
708,0.0
2,1, 7,21, 0, 1,10.00,20.00,SummerDesignDay
8,14.683643112241779
10,588883.2432939032
671,0.0
708,0.0
2,1, 7,21, 0, 1,20.00,30.00,SummerDesignDay
8,14.645675956341917
10,588883.2432939032
671,0.0
708,0.0
2,1, 7,21, 0, 1,30.00,40.00,SummerDesignDay
8,14.607657453743608
10,588883.2432939032
671,0.0
708,0.0
2,1, 7,21, 0, 1,40.00,50.00,SummerDesignDay
8,14.569587142603464
10,588883.2432939032
671,0.0
708,0.0
2,1, 7,21, 0, 1,50.00,60.00,SummerDesignDay
8,14.531465598243408
10,588883.2432939032
671,0.0
708,0.0
2,1, 7,21, 0, 1, 0.00,60.00,SummerDesignDay
357,24.574694344056128
397,24.300773151862477
437,24.255711754257374
477,24.404911979021507
517,24.205871059415345
557,24.85992993462492
2,1, 7,21, 0, 2, 0.00,10.00,SummerDesignDay
8,14.506020466548057
10,588883.2432939032
671,0.0
708,0.0
2,1, 7,21, 0, 2,10.00,20.00,SummerDesignDay
8,14.480552329220564
10,588883.2432939032
671,0.0
708,0.0
2,1, 7,21, 0, 2,20.00,30.00,SummerDesignDay
8,14.45506128680188
10,588883.2432939032
671,0.0
708,0.0
2,1, 7,21, 0, 2,30.00,40.00,SummerDesignDay
8,14.429552759423784
10,588883.2432939032
671,0.0
708,0.0
2,1, 7,21, 0, 2,40.00,50.00,SummerDesignDay
8,14.40401519621358
10,588883.2432939032
671,0.0
708,0.0
2,1, 7,21, 0, 2,50.00,60.00,SummerDesignDay
8,14.378454720466636
10,588883.2432939032
671,0.0
708,0.0
2,1, 7,21, 0, 2, 0.00,60.00,SummerDesignDay
357,24.357831484476664
397,24.089615298378317
437,24.010057892541764
477,24.15493374162241
517,23.97040327466766
557,24.58354977971136
2,1, 7,21, 0, 3, 0.00,10.00,SummerDesignDay
8,14.359273536304685
10,588883.2432939032
671,0.0
708,0.0
2,1, 7,21, 0, 3,10.00,20.00,SummerDesignDay
8,14.34007345588328
10,588883.2432939032
671,0.0
708,0.0
2,1, 7,21, 0, 3,20.00,30.00,SummerDesignDay
8,14.320860276172415
10,588883.2432939032
671,0.0
708,0.0
2,1, 7,21, 0, 3,30.00,40.00,SummerDesignDay
8,14.301639855760449
10,588883.2432939032
671,0.0
708,0.0
2,1, 7,21, 0, 3,40.00,50.00,SummerDesignDay
8,14.282400578681767
10,588883.2432939032
671,0.0
708,0.0
2,1, 7,21, 0, 3,50.00,60.00,SummerDesignDay
8,14.263153718277712
10,588883.2432939032
671,0.0
708,0.0
2,1, 7,21, 0, 3, 0.00,60.00,SummerDesignDay
357,24.15418076582657
397,23.8989992378346
437,23.788521877240514
477,23.928740290070605
517,23.757819866029068
557,24.330452449211639
2,1, 7,21, 0, 4, 0.00,10.00,SummerDesignDay
8,14.243888085256792
10,588883.2432939032
671,0.0
708,0.0
2,1, 7,21, 0, 4,10.00,20.00,SummerDesignDay
8,14.224615248968539
10,588883.2432939032
671,0.0
708,0.0
2,1, 7,21, 0, 4,20.00,30.00,SummerDesignDay
8,14.205323357892459
10,588883.2432939032
671,0.0
708,0.0
2,1, 7,21, 0, 4,30.00,40.00,SummerDesignDay
8,14.186024186016255
10,588883.2432939032
671,0.0
708,0.0
2,1, 7,21, 0, 4,40.00,50.00,SummerDesignDay
8,14.166706078206925
10,588883.2432939032
671,0.0
708,0.0
2,1, 7,21, 0, 4,50.00,60.00,SummerDesignDay
8,14.14737449004363
10,588883.2432939032
671,0.0
708,0.0
2,1, 7,21, 0, 4, 0.00,60.00,SummerDesignDay
357,23.95708271838005
397,23.71759216464812
437,23.578583421453158
477,23.71410860178959
517,23.555905581534604
557,24.089899056585386
2,1, 7,21, 0, 5, 0.00,10.00,SummerDesignDay
8,14.134483503136803
10,588883.2432939032
671,0.0
708,0.0
2,1, 7,21, 0, 5,10.00,20.00,SummerDesignDay
8,14.121586553330208
10,588883.2432939032
671,0.0
708,0.0
2,1, 7,21, 0, 5,20.00,30.00,SummerDesignDay
8,14.108677812040068
10,588883.2432939032
671,0.0
708,0.0
2,1, 7,21, 0, 5,30.00,40.00,SummerDesignDay
8,14.09576919829491
10,588883.2432939032
671,0.0
708,0.0
2,1, 7,21, 0, 5,40.00,50.00,SummerDesignDay
8,14.082848749312394
10,588883.2432939032
671,0.0
708,0.0
2,1, 7,21, 0, 5,50.00,60.00,SummerDesignDay
8,14.06992842447945
10,588883.2432939032
671,0.0
708,0.0
2,1, 7,21, 0, 5, 0.00,60.00,SummerDesignDay
357,23.793642535898909
397,23.544544773149697
437,23.385647801800216
477,23.604131649864667
517,23.40401783307695
557,23.867830562716394
2,1, 7,21, 0, 6, 0.00,10.00,SummerDesignDay
8,14.082848749312394
10,588883.2432939032
671,0.0
708,0.0
2,1, 7,21, 0, 6,10.00,20.00,SummerDesignDay
8,14.09576919829491
10,588883.2432939032
671,0.0
708,0.0
2,1, 7,21, 0, 6,20.00,30.00,SummerDesignDay
8,14.108677812040068
10,588883.2432939032
671,0.0
708,0.0
2,1, 7,21, 0, 6,30.00,40.00,SummerDesignDay
8,14.121586553330208
10,588883.2432939032
671,0.0
708,0.0
2,1, 7,21, 0, 6,40.00,50.00,SummerDesignDay
8,14.134483503136803
10,588883.2432939032
671,0.0
708,0.0
2,1, 7,21, 0, 6,50.00,60.00,SummerDesignDay
8,14.14737449004363
10,588883.2432939032
671,0.0
708,0.0
2,1, 7,21, 0, 6, 0.00,60.00,SummerDesignDay
357,24.012553228006188
397,23.498645496847684
437,23.370212903172147
477,24.859493887398768
517,23.642821448281784
557,23.810212718154856
2,1, 7,21, 0, 7, 0.00,10.00,SummerDesignDay
8,14.192458699541419
10,588883.2432939032
671,0.0
708,1483737.5043955874
2,1, 7,21, 0, 7,10.00,20.00,SummerDesignDay
8,14.237465289259147
10,588883.2432939032
671,0.0
708,288984.68139782649
2,1, 7,21, 0, 7,20.00,30.00,SummerDesignDay
8,14.282400578681767
10,588883.2432939032
671,0.0
708,1261965.1185149716
2,1, 7,21, 0, 7,30.00,40.00,SummerDesignDay
8,14.327269868157244
10,588883.2432939032
671,0.0
708,1081153.2960965378
2,1, 7,21, 0, 7,40.00,50.00,SummerDesignDay
8,14.37206256705002
10,588883.2432939032
671,0.0
708,1123944.2441676665
2,1, 7,21, 0, 7,50.00,60.00,SummerDesignDay
8,14.41678412858694
10,588883.2432939032
671,0.0
708,1165964.4703766828
2,1, 7,21, 0, 7, 0.00,60.00,SummerDesignDay
357,24.531893291563944
397,23.620771853386107
437,23.567473873365619
477,23.984860229312035
517,23.808203403571409
557,23.881450370308629
2,1, 7,21, 0, 8, 0.00,10.00,SummerDesignDay
8,14.52510778410502
10,1462359.638864261
671,0.0
708,1315573.8814544988
2,1, 7,21, 0, 8,10.00,20.00,SummerDesignDay
8,14.633010753827032
10,1462359.638864261
671,0.0
708,1618643.773404806
2,1, 7,21, 0, 8,20.00,30.00,SummerDesignDay
8,14.740500381053245
10,1462359.638864261
671,0.0
708,1977197.6583844543
2,1, 7,21, 0, 8,30.00,40.00,SummerDesignDay
8,14.847579818177666
10,1462359.638864261
671,0.0
708,1987257.1378824167
2,1, 7,21, 0, 8,40.00,50.00,SummerDesignDay
8,14.954251228863502
10,1462359.638864261
671,0.0
708,2134333.2436548864
2,1, 7,21, 0, 8,50.00,60.00,SummerDesignDay
8,15.06052241672491
10,1462359.638864261
671,0.0
708,2276376.210565757
2,1, 7,21, 0, 8, 0.00,60.00,SummerDesignDay
357,25.29137029955457
397,23.95709357473494
437,23.967054360949438
477,23.999999999940515
517,23.99222114857025
557,23.999543793441118
2,1, 7,21, 0, 9, 0.00,10.00,SummerDesignDay
8,15.17881093143959
10,4786172.030522507
671,0.0
708,4869342.142872855
2,1, 7,21, 0, 9,10.00,20.00,SummerDesignDay
8,15.296604763006956
10,4786172.030522507
671,0.0
708,5196281.090230477
2,1, 7,21, 0, 9,20.00,30.00,SummerDesignDay
8,15.413896017516949
10,4786172.030522507
671,0.0
708,5395355.293299476
2,1, 7,21, 0, 9,30.00,40.00,SummerDesignDay
8,15.530698941746774
10,4786172.030522507
671,0.0
708,5562400.000228119
2,1, 7,21, 0, 9,40.00,50.00,SummerDesignDay
8,15.647011238756806
10,4786172.030522507
671,0.0
708,5700513.867029189
2,1, 7,21, 0, 9,50.00,60.00,SummerDesignDay
8,15.76283100018377
10,4786172.030522507
671,0.0
708,5818750.434217498
2,1, 7,21, 0, 9, 0.00,60.00,SummerDesignDay
357,26.22012891759098
397,23.9999999989369
437,23.99999999979309
477,23.999999999999998
517,23.99999999997811
557,23.99999999999892
2,1, 7,21, 0,10, 0.00,10.00,SummerDesignDay
8,15.866050592731839
10,5384443.534337821
671,0.0
708,6429135.784082067
2,1, 7,21, 0,10,10.00,20.00,SummerDesignDay
8,15.968890456818999
10,5384443.534337821
671,0.0
708,6557249.869214589
2,1, 7,21, 0,10,20.00,30.00,SummerDesignDay
8,16.071341711565816
10,5384443.534337821
671,0.0
708,6643934.007108542
2,1, 7,21, 0,10,30.00,40.00,SummerDesignDay
8,16.17341255543748
10,5384443.534337821
671,0.0
708,6712576.456353519
2,1, 7,21, 0,10,40.00,50.00,SummerDesignDay
8,16.27510482862286
10,5384443.534337821
671,0.0
708,6767460.612876158
2,1, 7,21, 0,10,50.00,60.00,SummerDesignDay
8,16.376426408509034
10,5384443.534337821
671,0.0
708,6812243.2768872049
2,1, 7,21, 0,10, 0.00,60.00,SummerDesignDay
357,27.147860793183047
397,24.000000000000055
437,24.0
477,24.000000000000033
517,24.000000000000047
557,24.00000000000001
2,1, 7,21, 0,11, 0.00,10.00,SummerDesignDay
8,16.465508723862
10,5384443.534337821
671,0.0
708,6845094.08917254
2,1, 7,21, 0,11,10.00,20.00,SummerDesignDay
8,16.55430721068082
10,5384443.534337821
671,0.0
708,6875750.137305647
2,1, 7,21, 0,11,20.00,30.00,SummerDesignDay
8,16.642816905754793
10,5384443.534337821
671,0.0
708,6908636.251765513
2,1, 7,21, 0,11,30.00,40.00,SummerDesignDay
8,16.731040566742377
10,5384443.534337821
671,0.0
708,6949929.419583596
2,1, 7,21, 0,11,40.00,50.00,SummerDesignDay
8,16.818978528683528
10,5384443.534337821
671,0.0
708,7000916.66578061
2,1, 7,21, 0,11,50.00,60.00,SummerDesignDay
8,16.906632814677363
10,5384443.534337821
671,0.0
708,7062808.566516445
2,1, 7,21, 0,11, 0.00,60.00,SummerDesignDay
357,27.939224100720066
397,24.000000000000069
437,24.000000000000019
477,24.0
517,24.00000000000004
557,24.000000000000047
2,1, 7,21, 0,12, 0.00,10.00,SummerDesignDay
8,16.96490734112248
10,5384443.534337821
671,0.0
708,7120671.563892818
2,1, 7,21, 0,12,10.00,20.00,SummerDesignDay
8,17.02306163681706
10,5384443.534337821
671,0.0
708,7189840.497927751
2,1, 7,21, 0,12,20.00,30.00,SummerDesignDay
8,17.081091264670655
10,5384443.534337821
671,0.0
708,7274745.626700718
2,1, 7,21, 0,12,30.00,40.00,SummerDesignDay
8,17.138996936072375
10,5384443.534337821
671,0.0
708,7366622.51564387
2,1, 7,21, 0,12,40.00,50.00,SummerDesignDay
8,17.19677903247944
10,5384443.534337821
671,0.0
708,7457899.51720628
2,1, 7,21, 0,12,50.00,60.00,SummerDesignDay
8,17.254437857313869
10,5384443.534337821
671,0.0
708,7547245.232060994
2,1, 7,21, 0,12, 0.00,60.00,SummerDesignDay
357,28.545994241200334
397,24.000000000000015
437,24.000000000000055
477,24.000000000000033
517,24.00000000000004
557,24.00000000000003
2,1, 7,21, 0,13, 0.00,10.00,SummerDesignDay
8,17.300473352302974
10,5384443.534337821
671,0.0
708,7258279.327288056
2,1, 7,21, 0,13,10.00,20.00,SummerDesignDay
8,17.346435771613007
10,5384443.534337821
671,0.0
708,7291954.004668748
2,1, 7,21, 0,13,20.00,30.00,SummerDesignDay
8,17.39231462602826
10,5384443.534337821
671,0.0
708,7314077.00397436
2,1, 7,21, 0,13,30.00,40.00,SummerDesignDay
8,17.438120741249045
10,5384443.534337821
671,0.0
708,7336208.696862032
2,1, 7,21, 0,13,40.00,50.00,SummerDesignDay
8,17.48384898311392
10,5384443.534337821
671,0.0
708,7363660.823868949
2,1, 7,21, 0,13,50.00,60.00,SummerDesignDay
8,17.5294944744256
10,5384443.534337821
671,0.0
708,7395103.840837735
2,1, 7,21, 0,13, 0.00,60.00,SummerDesignDay
357,28.952854870494805
397,24.000000000000033
437,24.00000000000004
477,24.000000000000015
517,24.00000000000003
557,24.00000000000003
2,1, 7,21, 0,14, 0.00,10.00,SummerDesignDay
8,17.55798510290616
10,5384443.534337821
671,0.0
708,7417536.42047977
2,1, 7,21, 0,14,10.00,20.00,SummerDesignDay
8,17.58644628762676
10,5384443.534337821
671,0.0
708,7439209.276254434
2,1, 7,21, 0,14,20.00,30.00,SummerDesignDay
8,17.614877255826824
10,5384443.534337821
671,0.0
708,7471366.302839463
2,1, 7,21, 0,14,30.00,40.00,SummerDesignDay
8,17.64327765125093
10,5384443.534337821
671,0.0
708,7520585.894153378
2,1, 7,21, 0,14,40.00,50.00,SummerDesignDay
8,17.671648854260988
10,5384443.534337821
671,0.0
708,7583924.7484719
2,1, 7,21, 0,14,50.00,60.00,SummerDesignDay
8,17.699989806758667
10,5384443.534337821
671,0.0
708,7661911.248889867
2,1, 7,21, 0,14, 0.00,60.00,SummerDesignDay
357,29.17080726078889
397,24.000000000000019
437,24.000000000000019
477,24.000000000000047
517,24.000000000000026
557,24.000000000000033
2,1, 7,21, 0,15, 0.00,10.00,SummerDesignDay
8,17.699989806758667
10,5384443.534337821
671,0.0
708,8085815.644891548
2,1, 7,21, 0,15,10.00,20.00,SummerDesignDay
8,17.699989806758667
10,5384443.534337821
671,0.0
708,8222578.406820071
2,1, 7,21, 0,15,20.00,30.00,SummerDesignDay
8,17.699989806758667
10,5384443.534337821
671,0.0
708,8379331.140469497
2,1, 7,21, 0,15,30.00,40.00,SummerDesignDay
8,17.699989806758667
10,5384443.534337821
671,0.0
708,8537065.101893262
2,1, 7,21, 0,15,40.00,50.00,SummerDesignDay
8,17.699989806758667
10,5384443.534337821
671,0.0
708,8681785.356508812
2,1, 7,21, 0,15,50.00,60.00,SummerDesignDay
8,17.699989806758667
10,5384443.534337821
671,0.0
708,8814230.00502841
2,1, 7,21, 0,15, 0.00,60.00,SummerDesignDay
357,29.190671329315163
397,24.000000000000015
437,23.999999999999984
477,24.0
517,24.00000000000007
557,24.000000000000026
2,1, 7,21, 0,16, 0.00,10.00,SummerDesignDay
8,17.665977997442679
10,5384443.534337821
671,0.0
708,8915575.541817256
2,1, 7,21, 0,16,10.00,20.00,SummerDesignDay
8,17.631918087786315
10,5384443.534337821
671,0.0
708,9008147.333473089
2,1, 7,21, 0,16,20.00,30.00,SummerDesignDay
8,17.597820333420616
10,5384443.534337821
671,0.0
708,9076621.066173323
2,1, 7,21, 0,16,30.00,40.00,SummerDesignDay
8,17.563679163905577
10,5384443.534337821
671,0.0
708,9126613.715366979
2,1, 7,21, 0,16,40.00,50.00,SummerDesignDay
8,17.5294944744256
10,5384443.534337821
671,0.0
708,9166107.92035181
2,1, 7,21, 0,16,50.00,60.00,SummerDesignDay
8,17.495266319634998
10,5384443.534337821
671,0.0
708,9197738.948888503
2,1, 7,21, 0,16, 0.00,60.00,SummerDesignDay
357,28.997136261223465
397,24.000000000000069
437,24.000000000000097
477,24.000000000000033
517,24.00000000000001
557,23.99999999999997
2,1, 7,21, 0,17, 0.00,10.00,SummerDesignDay
8,17.449557296959818
10,5384443.534337821
671,0.0
708,9217781.262229437
2,1, 7,21, 0,17,10.00,20.00,SummerDesignDay
8,17.40377589954532
10,5384443.534337821
671,0.0
708,9232671.552783668
2,1, 7,21, 0,17,20.00,30.00,SummerDesignDay
8,17.35791148637736
10,5384443.534337821
671,0.0
708,9241587.175853784
2,1, 7,21, 0,17,30.00,40.00,SummerDesignDay
8,17.311974118675808
10,5384443.534337821
671,0.0
708,9246353.68262306
2,1, 7,21, 0,17,40.00,50.00,SummerDesignDay
8,17.26595275911724
10,5384443.534337821
671,0.0
708,9246861.968241197
2,1, 7,21, 0,17,50.00,60.00,SummerDesignDay
8,17.21985864371074
10,5384443.534337821
671,0.0
708,9241993.787448518
2,1, 7,21, 0,17, 0.00,60.00,SummerDesignDay
357,28.59742265264028
397,24.0
437,24.000000000000019
477,23.999999999999987
517,24.000000000000058
557,24.000000000000104
2,1, 7,21, 0,18, 0.00,10.00,SummerDesignDay
8,17.162125648791073
10,5016276.455066859
671,0.0
708,8878634.59971948
2,1, 7,21, 0,18,10.00,20.00,SummerDesignDay
8,17.104269902032834
10,5016276.455066859
671,0.0
708,8795568.98408537
2,1, 7,21, 0,18,20.00,30.00,SummerDesignDay
8,17.046289244389596
10,5016276.455066859
671,0.0
708,8702592.011663679
2,1, 7,21, 0,18,30.00,40.00,SummerDesignDay
8,16.988185042855699
10,5016276.455066859
671,0.0
708,8614059.798417569
2,1, 7,21, 0,18,40.00,50.00,SummerDesignDay
8,16.929955683840477
10,5016276.455066859
671,0.0
708,8536419.426366426
2,1, 7,21, 0,18,50.00,60.00,SummerDesignDay
8,16.871601025563547
10,5016276.455066859
671,0.0
708,8464854.130287355
2,1, 7,21, 0,18, 0.00,60.00,SummerDesignDay
357,28.017635492346085
397,24.000000000000026
437,24.000000000000097
477,24.000000000000015
517,24.000000000000044
557,24.000000000000069
2,1, 7,21, 0,19, 0.00,10.00,SummerDesignDay
8,16.783845019079924
10,2991357.519076566
671,0.0
708,6962534.532432947
2,1, 7,21, 0,19,10.00,20.00,SummerDesignDay
8,16.695786295207627
10,2991357.519076566
671,0.0
708,6737793.2259597149
2,1, 7,21, 0,19,20.00,30.00,SummerDesignDay
8,16.607448466661379
10,2991357.519076566
671,0.0
708,6560900.192071273
2,1, 7,21, 0,19,30.00,40.00,SummerDesignDay
8,16.518823167926099
10,2991357.519076566
671,0.0
708,6394159.445847163
2,1, 7,21, 0,19,40.00,50.00,SummerDesignDay
8,16.429909788083927
10,2991357.519076566
671,0.0
708,6237640.964810258
2,1, 7,21, 0,19,50.00,60.00,SummerDesignDay
8,16.340705768209366
10,2991357.519076566
671,0.0
708,6083048.207837921
2,1, 7,21, 0,19, 0.00,60.00,SummerDesignDay
357,27.265646196187544
397,24.00000000000003
437,24.000000000000015
477,23.999999999999987
517,24.00000000000001
557,24.000000000000055
2,1, 7,21, 0,20, 0.00,10.00,SummerDesignDay
8,16.27510482862286
10,1462359.638864261
671,0.0
708,5030182.914707247
2,1, 7,21, 0,20,10.00,20.00,SummerDesignDay
8,16.209346899979975
10,1462359.638864261
671,0.0
708,4775507.675557677
2,1, 7,21, 0,20,20.00,30.00,SummerDesignDay
8,16.14343031062354
10,1462359.638864261
671,0.0
708,4533816.791484857
2,1, 7,21, 0,20,30.00,40.00,SummerDesignDay
8,16.07735534694583
10,1462359.638864261
671,0.0
708,4280277.497974036
2,1, 7,21, 0,20,40.00,50.00,SummerDesignDay
8,16.011121524499058
10,1462359.638864261
671,0.0
708,4008459.903966106
2,1, 7,21, 0,20,50.00,60.00,SummerDesignDay
8,15.944726939802525
10,1462359.638864261
671,0.0
708,3734342.3530778705
2,1, 7,21, 0,20, 0.00,60.00,SummerDesignDay
357,26.425431098807846
397,24.000000000000015
437,24.000000000000015
477,23.99999999999999
517,24.000000000000019
557,24.000000000000044
2,1, 7,21, 0,21, 0.00,10.00,SummerDesignDay
8,15.890283167506159
10,1462359.638864261
671,0.0
708,3463347.4263851305
2,1, 7,21, 0,21,10.00,20.00,SummerDesignDay
8,15.835731425804106
10,1462359.638864261
671,0.0
708,3268495.055982042
2,1, 7,21, 0,21,20.00,30.00,SummerDesignDay
8,15.781076838291185
10,1462359.638864261
671,0.0
708,3112029.6521726169
2,1, 7,21, 0,21,30.00,40.00,SummerDesignDay
8,15.726308583775304
10,1462359.638864261
671,0.0
708,2976755.3412572869
2,1, 7,21, 0,21,40.00,50.00,SummerDesignDay
8,15.671431213250513
10,1462359.638864261
671,0.0
708,2857568.279910504
2,1, 7,21, 0,21,50.00,60.00,SummerDesignDay
8,15.61645040678747
10,1462359.638864261
671,0.0
708,2750453.668269164
2,1, 7,21, 0,21, 0.00,60.00,SummerDesignDay
357,25.678153712548224
397,24.000000000000015
437,24.00000000000001
477,24.00000000000003
517,24.000000000000015
557,24.000000000000015
2,1, 7,21, 0,22, 0.00,10.00,SummerDesignDay
8,15.561354608572382
10,717557.6374991046
671,0.0
708,0.0
2,1, 7,21, 0,22,10.00,20.00,SummerDesignDay
8,15.50614866374472
10,717557.6374991046
671,0.0
708,0.0
2,1, 7,21, 0,22,20.00,30.00,SummerDesignDay
8,15.450838288133705
10,717557.6374991046
671,0.0
708,0.0
2,1, 7,21, 0,22,30.00,40.00,SummerDesignDay
8,15.395411716843887
10,717557.6374991046
671,0.0
708,0.0
2,1, 7,21, 0,22,40.00,50.00,SummerDesignDay
8,15.339874488503668
10,717557.6374991046
671,0.0
708,0.0
2,1, 7,21, 0,22,50.00,60.00,SummerDesignDay
8,15.284225663499033
10,717557.6374991046
671,0.0
708,0.0
2,1, 7,21, 0,22, 0.00,60.00,SummerDesignDay
357,25.307726692740535
397,24.716234822793614
437,24.773833000903676
477,24.885794920591377
517,24.718552413968536
557,25.297242358606483
2,1, 7,21, 0,23, 0.00,10.00,SummerDesignDay
8,15.240869388325028
10,717557.6374991046
671,0.0
708,0.0
2,1, 7,21, 0,23,10.00,20.00,SummerDesignDay
8,15.197445349417654
10,717557.6374991046
671,0.0
708,0.0
2,1, 7,21, 0,23,20.00,30.00,SummerDesignDay
8,15.153947722661958
10,717557.6374991046
671,0.0
708,0.0
2,1, 7,21, 0,23,30.00,40.00,SummerDesignDay
8,15.110387923065014
10,717557.6374991046
671,0.0
708,0.0
2,1, 7,21, 0,23,40.00,50.00,SummerDesignDay
8,15.066759894808272
10,717557.6374991046
671,0.0
708,0.0
2,1, 7,21, 0,23,50.00,60.00,SummerDesignDay
8,15.023063522448683
10,717557.6374991046
671,0.0
708,0.0
2,1, 7,21, 0,23, 0.00,60.00,SummerDesignDay
357,25.035717460973385
397,24.81154518286476
437,24.821857116468725
477,24.959997750328573
517,24.753828256944215
557,25.453218209515698
2,1, 7,21, 0,24, 0.00,10.00,SummerDesignDay
8,14.979292987000976
10,588883.2432939032
671,0.0
708,0.0
2,1, 7,21, 0,24,10.00,20.00,SummerDesignDay
8,14.935459206425353
10,588883.2432939032
671,0.0
708,0.0
2,1, 7,21, 0,24,20.00,30.00,SummerDesignDay
8,14.891557025823348
10,588883.2432939032
671,0.0
708,0.0
2,1, 7,21, 0,24,30.00,40.00,SummerDesignDay
8,14.847579818177666
10,588883.2432939032
671,0.0
708,0.0
2,1, 7,21, 0,24,40.00,50.00,SummerDesignDay
8,14.803539198805562
10,588883.2432939032
671,0.0
708,0.0
2,1, 7,21, 0,24,50.00,60.00,SummerDesignDay
8,14.759429393816522
10,588883.2432939032
671,0.0
708,0.0
2,1, 7,21, 0,24, 0.00,60.00,SummerDesignDay
357,24.804552774209414
397,24.551438828722355
437,24.53818550708155
477,24.687040610833056
517,24.478004139358388
557,25.166154407514268
3,1, 7,21, 0,SummerDesignDay
358,42.329645256130969,35.51899267905424,15,10,48.989378562678449, 5,40
398,46.01845535261984,41.71345024102026,22,20,49.79486259239865, 6,10
438,45.62798913451619,41.482361458156109,22,20,50.254037235391738, 6,10
478,44.40686812860989,41.11489825919271,22,20,49.63707312504905, 5,30
518,45.77563378933169,41.59074681113222,22,20,50.11183797946453, 5,40
558,44.742623388007448,39.79192614131071,22,20,48.864052164254349, 6,10
4,1, 7
7,21.283875,16.6,21, 5,60,26.7,21,14,60
1,VICTORIA INTL AP ANN HTG 99.6% CONDNS DB,  48.65,-123.43,  -8.00,  19.50
2,1,12,21, 0, 1, 0.00,10.00,WinterDesignDay
8,-4.000002448902599
10,588883.2432939032
671,4277165.418652107
708,0.0
2,1,12,21, 0, 1,10.00,20.00,WinterDesignDay
8,-4.000002448902599
10,588883.2432939032
671,4313143.860071568
708,0.0
2,1,12,21, 0, 1,20.00,30.00,WinterDesignDay
8,-4.000002448902599
10,588883.2432939032
671,4348252.489313838
708,0.0
2,1,12,21, 0, 1,30.00,40.00,WinterDesignDay
8,-4.000002448902599
10,588883.2432939032
671,4382628.783304261
708,0.0
2,1,12,21, 0, 1,40.00,50.00,WinterDesignDay
8,-4.000002448902599
10,588883.2432939032
671,4416256.747897386
708,0.0
2,1,12,21, 0, 1,50.00,60.00,WinterDesignDay
8,-4.000002448902599
10,588883.2432939032
671,4449036.053188509
708,0.0
2,1,12,21, 0, 1, 0.00,60.00,WinterDesignDay
357,14.40793338223475
397,18.000000000000005
437,17.999999999999998
477,17.99999999999999
517,17.999999999999998
557,17.999999999999998
2,1,12,21, 0, 2, 0.00,10.00,WinterDesignDay
8,-4.000002448902599
10,588883.2432939032
671,4481189.563720854
708,0.0
2,1,12,21, 0, 2,10.00,20.00,WinterDesignDay
8,-4.000002448902599
10,588883.2432939032
671,4513398.5162518559
708,0.0
2,1,12,21, 0, 2,20.00,30.00,WinterDesignDay
8,-4.000002448902599
10,588883.2432939032
671,4545669.83614425
708,0.0
2,1,12,21, 0, 2,30.00,40.00,WinterDesignDay
8,-4.000002448902599
10,588883.2432939032
671,4577707.127583958
708,0.0
2,1,12,21, 0, 2,40.00,50.00,WinterDesignDay
8,-4.000002448902599
10,588883.2432939032
671,4609478.485324364
708,0.0
2,1,12,21, 0, 2,50.00,60.00,WinterDesignDay
8,-4.000002448902599
10,588883.2432939032
671,4640948.39996008
708,0.0
2,1,12,21, 0, 2, 0.00,60.00,WinterDesignDay
357,14.224451797193368
397,18.000000000000005
437,17.99999999999999
477,17.999999999999987
517,17.999999999999998
557,17.999999999999994
2,1,12,21, 0, 3, 0.00,10.00,WinterDesignDay
8,-4.000002448902599
10,588883.2432939032
671,4672082.484704018
708,0.0
2,1,12,21, 0, 3,10.00,20.00,WinterDesignDay
8,-4.000002448902599
10,588883.2432939032
671,4702840.667439231
708,0.0
2,1,12,21, 0, 3,20.00,30.00,WinterDesignDay
8,-4.000002448902599
10,588883.2432939032
671,4733165.650203031
708,0.0
2,1,12,21, 0, 3,30.00,40.00,WinterDesignDay
8,-4.000002448902599
10,588883.2432939032
671,4762949.3088886369
708,0.0
2,1,12,21, 0, 3,40.00,50.00,WinterDesignDay
8,-4.000002448902599
10,588883.2432939032
671,4791639.692723136
708,0.0
2,1,12,21, 0, 3,50.00,60.00,WinterDesignDay
8,-4.000002448902599
10,588883.2432939032
671,4820343.752163774
708,0.0
2,1,12,21, 0, 3, 0.00,60.00,WinterDesignDay
357,14.0499718577336
397,18.0
437,18.00000000000001
477,17.999999999999998
517,17.99999999999999
557,17.999999999999994
2,1,12,21, 0, 4, 0.00,10.00,WinterDesignDay
8,-4.000002448902599
10,588883.2432939032
671,4849452.710034862
708,0.0
2,1,12,21, 0, 4,10.00,20.00,WinterDesignDay
8,-4.000002448902599
10,588883.2432939032
671,4879432.8216197839
708,0.0
2,1,12,21, 0, 4,20.00,30.00,WinterDesignDay
8,-4.000002448902599
10,588883.2432939032
671,4909509.877862347
708,0.0
2,1,12,21, 0, 4,30.00,40.00,WinterDesignDay
8,-4.000002448902599
10,588883.2432939032
671,4939698.781383576
708,0.0
2,1,12,21, 0, 4,40.00,50.00,WinterDesignDay
8,-4.000002448902599
10,588883.2432939032
671,4969882.832161786
708,0.0
2,1,12,21, 0, 4,50.00,60.00,WinterDesignDay
8,-4.000002448902599
10,588883.2432939032
671,5000044.05815914
708,0.0
2,1,12,21, 0, 4, 0.00,60.00,WinterDesignDay
357,13.88612477132484
397,18.0
437,17.999999999999998
477,18.000000000000005
517,17.999999999999994
557,17.999999999999994
2,1,12,21, 0, 5, 0.00,10.00,WinterDesignDay
8,-4.000002448902599
10,588883.2432939032
671,5030155.304650871
708,0.0
2,1,12,21, 0, 5,10.00,20.00,WinterDesignDay
8,-4.000002448902599
10,588883.2432939032
671,5060183.391553208
708,0.0
2,1,12,21, 0, 5,20.00,30.00,WinterDesignDay
8,-4.000002448902599
10,588883.2432939032
671,5090104.808375649
708,0.0
2,1,12,21, 0, 5,30.00,40.00,WinterDesignDay
8,-4.000002448902599
10,588883.2432939032
671,5119899.776996545
708,0.0
2,1,12,21, 0, 5,40.00,50.00,WinterDesignDay
8,-4.000002448902599
10,588883.2432939032
671,5149551.397720335
708,0.0
2,1,12,21, 0, 5,50.00,60.00,WinterDesignDay
8,-4.000002448902599
10,588883.2432939032
671,5179045.035352744
708,0.0
2,1,12,21, 0, 5, 0.00,60.00,WinterDesignDay
357,13.733253091567013
397,18.0
437,17.999999999999987
477,17.999999999999998
517,17.999999999999994
557,17.99999999999999
2,1,12,21, 0, 6, 0.00,10.00,WinterDesignDay
8,-4.000002448902599
10,588883.2432939032
671,5208367.866802214
708,0.0
2,1,12,21, 0, 6,10.00,20.00,WinterDesignDay
8,-4.000002448902599
10,588883.2432939032
671,5237508.564905284
708,0.0
2,1,12,21, 0, 6,20.00,30.00,WinterDesignDay
8,-4.000002448902599
10,588883.2432939032
671,5266457.0732656479
708,0.0
2,1,12,21, 0, 6,30.00,40.00,WinterDesignDay
8,-4.000002448902599
10,588883.2432939032
671,5295204.435555979
708,0.0
2,1,12,21, 0, 6,40.00,50.00,WinterDesignDay
8,-4.000002448902599
10,588883.2432939032
671,5323742.659436492
708,0.0
2,1,12,21, 0, 6,50.00,60.00,WinterDesignDay
8,-4.000002448902599
10,588883.2432939032
671,5352064.605304114
708,0.0
2,1,12,21, 0, 6, 0.00,60.00,WinterDesignDay
357,13.589765974528751
397,18.0
437,17.999999999999994
477,17.999999999999994
517,17.999999999999987
557,18.000000000000005
2,1,12,21, 0, 7, 0.00,10.00,WinterDesignDay
8,-4.000002448902599
10,588883.2432939032
671,12804464.754577112
708,0.0
2,1,12,21, 0, 7,10.00,20.00,WinterDesignDay
8,-4.000002448902599
10,588883.2432939032
671,4301792.814331525
708,0.0
2,1,12,21, 0, 7,20.00,30.00,WinterDesignDay
8,-4.000002448902599
10,588883.2432939032
671,11052388.898820192
708,0.0
2,1,12,21, 0, 7,30.00,40.00,WinterDesignDay
8,-4.000002448902599
10,588883.2432939032
671,9060648.076082377
708,0.0
2,1,12,21, 0, 7,40.00,50.00,WinterDesignDay
8,-4.000002448902599
10,588883.2432939032
671,9039694.674734954
708,0.0
2,1,12,21, 0, 7,50.00,60.00,WinterDesignDay
8,-4.000002448902599
10,588883.2432939032
671,8946557.712648357
708,0.0
2,1,12,21, 0, 7, 0.00,60.00,WinterDesignDay
357,13.464576486140543
397,20.043229517928699
437,20.021075343747396
477,20.019771455981304
517,20.022176901193619
557,20.019667221437019
2,1,12,21, 0, 8, 0.00,10.00,WinterDesignDay
8,-4.000002448902599
10,1462359.638864261
671,16696856.361975842
708,0.0
2,1,12,21, 0, 8,10.00,20.00,WinterDesignDay
8,-4.000002448902599
10,1462359.638864261
671,8504603.038567402
708,0.0
2,1,12,21, 0, 8,20.00,30.00,WinterDesignDay
8,-4.000002448902599
10,1462359.638864261
671,14179403.719756069
708,0.0
2,1,12,21, 0, 8,30.00,40.00,WinterDesignDay
8,-4.000002448902599
10,1462359.638864261
671,12385926.760775388
708,0.0
2,1,12,21, 0, 8,40.00,50.00,WinterDesignDay
8,-4.000002448902599
10,1462359.638864261
671,12183076.62362664
708,0.0
2,1,12,21, 0, 8,50.00,60.00,WinterDesignDay
8,-4.000002448902599
10,1462359.638864261
671,11990423.471230939
708,0.0
2,1,12,21, 0, 8, 0.00,60.00,WinterDesignDay
357,13.407871447507118
397,22.02051334652629
437,22.007490696558489
477,22.00688251092775
517,22.00781785130314
557,22.00684900016083
2,1,12,21, 0, 9, 0.00,10.00,WinterDesignDay
8,-4.000002448902599
10,4786172.030522507
671,9791169.657633687
708,0.0
2,1,12,21, 0, 9,10.00,20.00,WinterDesignDay
8,-4.000002448902599
10,4786172.030522507
671,9475402.843129144
708,0.0
2,1,12,21, 0, 9,20.00,30.00,WinterDesignDay
8,-4.000002448902599