Program Version,EnergyPlus, Version 8.9.0-eba93e8e1b, YMD=2018.11.29 14:34
1,5,Environment Title[],Latitude[deg],Longitude[deg],Time Zone[],Elevation[m]
2,8,Day of Simulation[],Month[],Day of Month[],DST Indicator[1=yes 0=no],Hour[],StartMinute[],EndMinute[],DayType
3,5,Cumulative Day of Simulation[],Month[],Day of Month[],DST Indicator[1=yes 0=no],DayType  ! When Daily Report Variables Requested
4,2,Cumulative Days of Simulation[],Month[]  ! When Monthly Report Variables Requested
5,1,Cumulative Days of Simulation[] ! When Run Period Report Variables Requested
6,1,Calendar Year of Simulation[] ! When Annual Report Variables Requested
7,9,Environment,Site Outdoor Air Drybulb Temperature [C] !Monthly [Value,Min,Day,Hour,Minute,Max,Day,Hour,Minute]
8,1,Environment,Site Outdoor Air Wetbulb Temperature [C] !TimeStep
555,1,SP-ATTIC SYS-0 FLR-2 SCH-- UNDEFINED - HPLCMT-CORE ZN,Zone Air Temperature [C] !Hourly
556,7,SP-ATTIC SYS-0 FLR-2 SCH-- UNDEFINED - HPLCMT-CORE ZN,Zone Air Relative Humidity [%] !Daily [Value,Min,Hour,Minute,Max,Hour,Minute]
595,1,SP-CORE_ZN SYS-3 FLR-1 SCH-A HPLCMT-CORE ZN,Zone Air Temperature [C] !Hourly
596,7,SP-CORE_ZN SYS-3 FLR-1 SCH-A HPLCMT-CORE ZN,Zone Air Relative Humidity [%] !Daily [Value,Min,Hour,Minute,Max,Hour,Minute]
635,1,SP-PERIMETER_ZN_1 SYS-3 FLR-1 SCH-A HPLCMT-SOUTH ZN,Zone Air Temperature [C] !Hourly
636,7,SP-PERIMETER_ZN_1 SYS-3 FLR-1 SCH-A HPLCMT-SOUTH ZN,Zone Air Relative Humidity [%] !Daily [Value,Min,Hour,Minute,Max,Hour,Minute]
675,1,SP-PERIMETER_ZN_2 SYS-3 FLR-1 SCH-A HPLCMT-EAST ZN,Zone Air Temperature [C] !Hourly
676,7,SP-PERIMETER_ZN_2 SYS-3 FLR-1 SCH-A HPLCMT-EAST ZN,Zone Air Relative Humidity [%] !Daily [Value,Min,Hour,Minute,Max,Hour,Minute]
715,1,SP-PERIMETER_ZN_3 SYS-3 FLR-1 SCH-A HPLCMT-NORTH ZN,Zone Air Temperature [C] !Hourly
716,7,SP-PERIMETER_ZN_3 SYS-3 FLR-1 SCH-A HPLCMT-NORTH ZN,Zone Air Relative Humidity [%] !Daily [Value,Min,Hour,Minute,Max,Hour,Minute]
755,1,SP-PERIMETER_ZN_4 SYS-3 FLR-1 SCH-A HPLCMT-WEST ZN,Zone Air Temperature [C] !Hourly
756,7,SP-PERIMETER_ZN_4 SYS-3 FLR-1 SCH-A HPLCMT-WEST ZN,Zone Air Relative Humidity [%] !Daily [Value,Min,Hour,Minute,Max,Hour,Minute]
10,1,Electricity:Facility [J] !TimeStep
321,1,Gas:Facility [J] !TimeStep
End of Data Dictionary
1,WINDSOR INTL AP ANN CLG .4% CONDNS DB=>MWB,  42.28, -82.96,  -5.00, 189.60
2,1, 7,21, 0, 1, 0.00,10.00,SummerDesignDay
8,20.97335962749645
10,876225.8468468279
321,12000.0
2,1, 7,21, 0, 1,10.00,20.00,SummerDesignDay
8,20.946623966558698
10,876225.8468468279
321,12000.0
2,1, 7,21, 0, 1,20.00,30.00,SummerDesignDay
8,20.919864648406099
10,876225.8468468279
321,579771.3667277991
2,1, 7,21, 0, 1,30.00,40.00,SummerDesignDay
8,20.893072780972653
10,876225.8468468279
321,12000.0
2,1, 7,21, 0, 1,40.00,50.00,SummerDesignDay
8,20.866252591795904
10,876225.8468468279
321,584654.5206169232
2,1, 7,21, 0, 1,50.00,60.00,SummerDesignDay
8,20.83940529755027
10,876225.8468468279
321,12000.0
2,1, 7,21, 0, 1, 0.00,60.00,SummerDesignDay
555,26.079064039897859
595,26.214198035652868
635,26.28405064092524
675,26.637458987944045
715,26.271964168807114
755,26.991182237428636
2,1, 7,21, 0, 2, 0.00,10.00,SummerDesignDay
8,20.821490830520078
10,876225.8468468279
321,12000.0
2,1, 7,21, 0, 2,10.00,20.00,SummerDesignDay
8,20.80356907950476
10,876225.8468468279
321,577896.9725317588
2,1, 7,21, 0, 2,20.00,30.00,SummerDesignDay
8,20.785630459928176
10,876225.8468468279
321,12000.0
2,1, 7,21, 0, 2,30.00,40.00,SummerDesignDay
8,20.767678988386437
10,876225.8468468279
321,582997.4439852681
2,1, 7,21, 0, 2,40.00,50.00,SummerDesignDay
8,20.749714519003836
10,876225.8468468279
321,12000.0
2,1, 7,21, 0, 2,50.00,60.00,SummerDesignDay
8,20.731737894032638
10,876225.8468468279
321,295983.91418206816
2,1, 7,21, 0, 2, 0.00,60.00,SummerDesignDay
555,25.93419831009525
595,26.068102108817084
635,26.11900928783611
675,26.488175341964565
715,26.110842153911237
755,26.828749729105256
2,1, 7,21, 0, 3, 0.00,10.00,SummerDesignDay
8,20.71824752870708
10,876225.8468468279
321,297550.9033168866
2,1, 7,21, 0, 3,10.00,20.00,SummerDesignDay
8,20.704750126303375
10,876225.8468468279
321,12000.0
2,1, 7,21, 0, 3,20.00,30.00,SummerDesignDay
8,20.691245356087916
10,876225.8468468279
321,581354.1332538457
2,1, 7,21, 0, 3,30.00,40.00,SummerDesignDay
8,20.677737899804865
10,876225.8468468279
321,12000.0
2,1, 7,21, 0, 3,40.00,50.00,SummerDesignDay
8,20.664218701470074
10,876225.8468468279
321,548623.8071103701
2,1, 7,21, 0, 3,50.00,60.00,SummerDesignDay
8,20.650692742521078
10,876225.8468468279
321,48806.148111424336
2,1, 7,21, 0, 3, 0.00,60.00,SummerDesignDay
555,25.805957390528829
595,25.936405914689645
635,25.970384136162527
675,26.343142651598915
715,25.9657685297165
755,26.666357642722319
2,1, 7,21, 0, 4, 0.00,10.00,SummerDesignDay
8,20.637159777940288
10,876225.8468468279
321,12000.0
2,1, 7,21, 0, 4,10.00,20.00,SummerDesignDay
8,20.623619586556936
10,876225.8468468279
321,579728.1109435323
2,1, 7,21, 0, 4,20.00,30.00,SummerDesignDay
8,20.610072215754984
10,876225.8468468279
321,12000.0
2,1, 7,21, 0, 4,30.00,40.00,SummerDesignDay
8,20.596517646806786
10,876225.8468468279
321,584618.2240266258
2,1, 7,21, 0, 4,40.00,50.00,SummerDesignDay
8,20.582956194307774
10,876225.8468468279
321,12000.0
2,1, 7,21, 0, 4,50.00,60.00,SummerDesignDay
8,20.569387426741398
10,876225.8468468279
321,12000.0
2,1, 7,21, 0, 4, 0.00,60.00,SummerDesignDay
555,25.684701219522045
595,25.814201155090435
635,25.831062717809208
675,26.20402130510669
715,25.829425984128773
755,26.5088970331407
2,1, 7,21, 0, 5, 0.00,10.00,SummerDesignDay
8,20.560347950095957
10,876225.8468468279
321,577848.3763746667
2,1, 7,21, 0, 5,10.00,20.00,SummerDesignDay
8,20.55129528466898
10,876225.8468468279
321,12000.0
2,1, 7,21, 0, 5,20.00,30.00,SummerDesignDay
8,20.54223336682703
10,876225.8468468279
321,582954.7876446007
2,1, 7,21, 0, 5,30.00,40.00,SummerDesignDay
8,20.533174555758774
10,876225.8468468279
321,12000.0
2,1, 7,21, 0, 5,40.00,50.00,SummerDesignDay
8,20.524111871226514
10,876225.8468468279
321,302910.04080484536
2,1, 7,21, 0, 5,50.00,60.00,SummerDesignDay
8,20.515045991390708
10,876225.8468468279
321,290740.1444517304
2,1, 7,21, 0, 5, 0.00,60.00,SummerDesignDay
555,25.56643925265953
595,25.69677320084332
635,25.697408509589605
675,26.069558476470204
715,25.698564470400755
755,26.356610771700248
2,1, 7,21, 0, 6, 0.00,10.00,SummerDesignDay
8,20.524111871226514
10,876225.8468468279
321,12000.0
2,1, 7,21, 0, 6,10.00,20.00,SummerDesignDay
8,20.533174555758774
10,876225.8468468279
321,581312.9413950717
2,1, 7,21, 0, 6,20.00,30.00,SummerDesignDay
8,20.54223336682703
10,876225.8468468279
321,12000.0
2,1, 7,21, 0, 6,30.00,40.00,SummerDesignDay
8,20.55129528466898
10,876225.8468468279
321,554643.1480728739
2,1, 7,21, 0, 6,40.00,50.00,SummerDesignDay
8,20.560347950095957
10,876225.8468468279
321,42858.40271646196
2,1, 7,21, 0, 6,50.00,60.00,SummerDesignDay
8,20.569387426741398
10,890586.6735554313
321,12000.0
2,1, 7,21, 0, 6, 0.00,60.00,SummerDesignDay
555,25.538129711222387
595,25.615755479879608
635,25.619143361032937
675,26.133812903651586
715,25.660169875191558
755,26.251407589797528
2,1, 7,21, 0, 7, 0.00,10.00,SummerDesignDay
8,20.601036940725476
10,3517370.7721791707
321,652273.046779598
2,1, 7,21, 0, 7,10.00,20.00,SummerDesignDay
8,20.6326468607383
10,2919563.184625442
321,93947.49877077859
2,1, 7,21, 0, 7,20.00,30.00,SummerDesignDay
8,20.664218701470074
10,2700041.2342724066
321,585346.3396358577
2,1, 7,21, 0, 7,30.00,40.00,SummerDesignDay
8,20.69574734578554
10,2722255.1454204048
321,12000.0
2,1, 7,21, 0, 7,40.00,50.00,SummerDesignDay
8,20.727242037099676
10,2586586.151553735
321,12000.0
2,1, 7,21, 0, 7,50.00,60.00,SummerDesignDay
8,20.75869794330259
10,2562860.8672872206
321,578225.354875479
2,1, 7,21, 0, 7, 0.00,60.00,SummerDesignDay
555,25.861638082888104
595,24.057514315305445
635,24.047157064355177
675,24.08138356727228
715,24.067787833113625
755,24.063496846331039
2,1, 7,21, 0, 8, 0.00,10.00,SummerDesignDay
8,20.83492764259517
10,3663042.329186064
321,12000.0
2,1, 7,21, 0, 8,10.00,20.00,SummerDesignDay
8,20.9109370998051
10,3694749.922177231
321,606903.46410306
2,1, 7,21, 0, 8,20.00,30.00,SummerDesignDay
8,20.98671784925484
10,3714495.941480556
321,12000.0
2,1, 7,21, 0, 8,30.00,40.00,SummerDesignDay
8,21.062275376793069
10,3736713.4787847695
321,606002.8108881707
2,1, 7,21, 0, 8,40.00,50.00,SummerDesignDay
8,21.137616312257319
10,3757709.5845692504
321,149994.3517343854
2,1, 7,21, 0, 8,50.00,60.00,SummerDesignDay
8,21.212731630626729
10,3776241.7363245806
321,468911.49701774187
2,1, 7,21, 0, 8, 0.00,60.00,SummerDesignDay
555,26.496750704771917
595,23.999540114378349
635,23.99948797205025
675,23.998545451635569
715,23.999459530910558
755,23.999787225485517
2,1, 7,21, 0, 9, 0.00,10.00,SummerDesignDay
8,21.296425092706909
10,7973150.982267042
321,928364.6440961916
2,1, 7,21, 0, 9,10.00,20.00,SummerDesignDay
8,21.379850586892247
10,8095538.6210361369
321,988609.124682535
2,1, 7,21, 0, 9,20.00,30.00,SummerDesignDay
8,21.463000242011085
10,8143121.04524663
321,988862.9251313954
2,1, 7,21, 0, 9,30.00,40.00,SummerDesignDay
8,21.54588037790266
10,8191344.151942217
321,989039.3614877489
2,1, 7,21, 0, 9,40.00,50.00,SummerDesignDay
8,21.628496559964245
10,8232753.831630818
321,924186.4463831998
2,1, 7,21, 0, 9,50.00,60.00,SummerDesignDay
8,21.710841836813754
10,8269242.040596188
321,879994.8111768102
2,1, 7,21, 0, 9, 0.00,60.00,SummerDesignDay
555,27.30630537275718
595,23.998349610076489
635,23.9984300903298
675,23.998234490834109
715,23.998451628461358
755,23.99933606132089
2,1, 7,21, 0,10, 0.00,10.00,SummerDesignDay
8,21.784293470592837
10,9067318.817124075
321,879635.7188129968
2,1, 7,21, 0,10,10.00,20.00,SummerDesignDay
8,21.85753875946139
10,9107452.9540979
321,879259.598475106
2,1, 7,21, 0,10,20.00,30.00,SummerDesignDay
8,21.930569281126119
10,9137728.158341438
321,878877.305382143
2,1, 7,21, 0,10,30.00,40.00,SummerDesignDay
8,22.00339025200843
10,9159095.523787484
321,878489.1337600157
2,1, 7,21, 0,10,40.00,50.00,SummerDesignDay
8,22.076007189719684
10,9173868.354674427
321,878094.960477212
2,1, 7,21, 0,10,50.00,60.00,SummerDesignDay
8,22.148412849449114
10,9186003.205650755
321,877694.6591573755
2,1, 7,21, 0,10, 0.00,60.00,SummerDesignDay
555,28.124218602059078
595,23.99799700137719
635,23.998065477296199
675,23.998150341472525
715,23.99803833661366
755,23.999073006048449
2,1, 7,21, 0,11, 0.00,10.00,SummerDesignDay
8,22.212128716251724
10,9193831.64863138
321,1895856.160875465
2,1, 7,21, 0,11,10.00,20.00,SummerDesignDay
8,22.2756889298338
10,9232769.527111
321,1284850.7519567046
2,1, 7,21, 0,11,20.00,30.00,SummerDesignDay
8,22.339085057218214
10,9244480.537818777
321,1529007.5844276266
2,1, 7,21, 0,11,30.00,40.00,SummerDesignDay
8,22.402327894875019
10,9260462.633806473
321,1650919.5331484164
2,1, 7,21, 0,11,40.00,50.00,SummerDesignDay
8,22.465408036983417
10,9275319.299010717
321,1284127.952518956
2,1, 7,21, 0,11,50.00,60.00,SummerDesignDay
8,22.52833534804036
10,9293961.796219983
321,1895856.160875465
2,1, 7,21, 0,11, 0.00,60.00,SummerDesignDay
555,28.83190444057543
595,23.997996254405537
635,23.997891261047429
675,23.998568638668265
715,23.99794875278357
755,23.998968014796224
2,1, 7,21, 0,12, 0.00,10.00,SummerDesignDay
8,22.570195859141106
10,9305996.879665958
321,1284475.6066395769
2,1, 7,21, 0,12,10.00,20.00,SummerDesignDay
8,22.611991082803763
10,9321891.311007718
321,1895856.160875465
2,1, 7,21, 0,12,20.00,30.00,SummerDesignDay
8,22.653717080189638
10,9341877.793758233
321,1284796.7213886344
2,1, 7,21, 0,12,30.00,40.00,SummerDesignDay
8,22.695370353576199
10,9365160.915171862
321,1558727.6232730074
2,1, 7,21, 0,12,40.00,50.00,SummerDesignDay
8,22.73695904376563
10,9394657.801961553
321,1621247.393923846
2,1, 7,21, 0,12,50.00,60.00,SummerDesignDay
8,22.778474332413724
10,9423030.014330486
321,1284102.0652409113
2,1, 7,21, 0,12, 0.00,60.00,SummerDesignDay
555,29.375736666655429
595,23.997817074882624
635,23.997518065454938
675,23.998771333562869
715,23.99773845485767
755,23.998855860502034
2,1, 7,21, 0,13, 0.00,10.00,SummerDesignDay
8,22.811641542609853
10,9328007.515716037
321,1895856.160875465
2,1, 7,21, 0,13,10.00,20.00,SummerDesignDay
8,22.844764583702866
10,9344692.278388016
321,1284454.6664937193
2,1, 7,21, 0,13,20.00,30.00,SummerDesignDay
8,22.877849014999574
10,9362185.40404458
321,1895856.160875465
2,1, 7,21, 0,13,30.00,40.00,SummerDesignDay
8,22.910875849161117
10,9380069.838011839
321,1284776.4011377115
2,1, 7,21, 0,13,40.00,50.00,SummerDesignDay
8,22.943868108968599
10,9397608.46841767
321,1588520.7415455895
2,1, 7,21, 0,13,50.00,60.00,SummerDesignDay
8,22.97681791561112
10,9417783.744977937
321,1591508.5050906304
2,1, 7,21, 0,13, 0.00,60.00,SummerDesignDay
555,29.743578620566298
595,23.998103787272116
635,23.997722841381394
675,23.998862547749089
715,23.99798426294141
755,23.99898868817773
2,1, 7,21, 0,14, 0.00,10.00,SummerDesignDay
8,22.99738479364458
10,9430671.191579963
321,1284075.5908535883
2,1, 7,21, 0,14,10.00,20.00,SummerDesignDay
8,23.017939742631105
10,9445898.203894861
321,1895856.160875465
2,1, 7,21, 0,14,20.00,30.00,SummerDesignDay
8,23.03847761546047
10,9458903.24080138
321,1284433.6500600253
2,1, 7,21, 0,14,30.00,40.00,SummerDesignDay
8,23.058998564859715
10,9472204.938640695
321,1895856.160875465
2,1, 7,21, 0,14,40.00,50.00,SummerDesignDay
8,23.079502846596939
10,9489938.288230796
321,1284756.0075348218
2,1, 7,21, 0,14,50.00,60.00,SummerDesignDay
8,23.099995241993793
10,9513336.209905822
321,1618375.6498129215
2,1, 7,21, 0,14, 0.00,60.00,SummerDesignDay
555,29.949632418977218
595,23.998213363615205
635,23.997919415244544
675,23.998875116483516
715,23.998082857402097
755,23.99903389598296
2,1, 7,21, 0,15, 0.00,10.00,SummerDesignDay
8,23.099995241993793
10,9657478.012740624
321,1561712.3711742224
2,1, 7,21, 0,15,10.00,20.00,SummerDesignDay
8,23.099995241993793
10,9692952.609909656
321,1284048.5326846974
2,1, 7,21, 0,15,20.00,30.00,SummerDesignDay
8,23.099995241993793
10,9735075.423150003
321,1895856.160875465
2,1, 7,21, 0,15,30.00,40.00,SummerDesignDay
8,23.099995241993793
10,9777782.581246559
321,1284412.5631253736
2,1, 7,21, 0,15,40.00,50.00,SummerDesignDay
8,23.099995241993793
10,9822427.19014671
321,1895856.160875465
2,1, 7,21, 0,15,50.00,60.00,SummerDesignDay
8,23.099995241993793
10,9865676.149697876
321,1284735.5461975195
2,1, 7,21, 0,15, 0.00,60.00,SummerDesignDay
555,29.985926703566084
595,23.997799552014056
635,23.99767057387348
675,23.99865228003566
715,23.99769794239512
755,23.998468597143938
2,1, 7,21, 0,16, 0.00,10.00,SummerDesignDay
8,23.075403091243229
10,9896427.305962958
321,1648285.4439835163
2,1, 7,21, 0,16,10.00,20.00,SummerDesignDay
8,23.05079230207949
10,9926012.739991425
321,1531865.310895687
2,1, 7,21, 0,16,20.00,30.00,SummerDesignDay
8,23.02615697322547
10,9950137.030242868
321,1284020.8916072967
2,1, 7,21, 0,16,30.00,40.00,SummerDesignDay
8,23.00149729135515
10,9973719.573109778
321,1895856.160875465
2,1, 7,21, 0,16,40.00,50.00,SummerDesignDay
8,22.97681791561112
10,9988348.356778773
321,1284391.4092305049
2,1, 7,21, 0,16,50.00,60.00,SummerDesignDay
8,22.952109621926977
10,9996119.067046773
321,1895856.160875465
2,1, 7,21, 0,16, 0.00,60.00,SummerDesignDay
555,29.837124562056166
595,23.997495211809605
635,23.99749504123434
675,23.998543002375045
715,23.997425268268534
755,23.997561691455535
2,1, 7,21, 0,17, 0.00,10.00,SummerDesignDay
8,22.91912809061474
10,9996610.91410137
321,1151259.2222111135
2,1, 7,21, 0,17,10.00,20.00,SummerDesignDay
8,22.886102743899686
10,9977913.658337336
321,1132296.4777758255
2,1, 7,21, 0,17,20.00,30.00,SummerDesignDay
8,22.853038160073415
10,9968783.533583913
321,1131613.810394029
2,1, 7,21, 0,17,30.00,40.00,SummerDesignDay
8,22.81992592140411
10,9953783.179681246
321,1130914.1450176244
2,1, 7,21, 0,17,40.00,50.00,SummerDesignDay
8,22.78677034885121
10,9938520.636358167
321,1419009.7148953262
2,1, 7,21, 0,17,50.00,60.00,SummerDesignDay
8,22.753575340556599
10,9923200.808539665
321,1444510.403285072
2,1, 7,21, 0,17, 0.00,60.00,SummerDesignDay
555,29.508076562316395
595,23.99745732819679
635,23.997500287947515
675,23.99860023804743
715,23.997423485251315
755,23.99760885974349
2,1, 7,21, 0,18, 0.00,10.00,SummerDesignDay
8,22.71201418012816
10,9423573.856284664
321,1020997.0568367945
2,1, 7,21, 0,18,10.00,20.00,SummerDesignDay
8,22.67038434655908
10,9375963.885100894
321,983082.6014056037
2,1, 7,21, 0,18,20.00,30.00,SummerDesignDay
8,22.628689701657064
10,9343079.421733674
321,880155.6707040934
2,1, 7,21, 0,18,30.00,40.00,SummerDesignDay
8,22.58692261610899
10,9303118.136960617
321,879835.2224341211
2,1, 7,21, 0,18,40.00,50.00,SummerDesignDay
8,22.545094622178838
10,9263444.102757298
321,879464.0754002873
2,1, 7,21, 0,18,50.00,60.00,SummerDesignDay
8,22.50318309182767
10,9226907.932710823
321,879084.9127325891
2,1, 7,21, 0,18, 0.00,60.00,SummerDesignDay
555,29.031891914721738
595,23.997964763949417
635,23.997949379932256
675,23.998891853209189
715,23.99791346141738
755,23.998135945502793
2,1, 7,21, 0,19, 0.00,10.00,SummerDesignDay
8,22.440193165050539
10,6682863.595268196
321,443453.4848094428
2,1, 7,21, 0,19,10.00,20.00,SummerDesignDay
8,22.377049774700379
10,6583749.074415457
321,663508.9467007684
2,1, 7,21, 0,19,20.00,30.00,SummerDesignDay
8,22.313748391361807
10,6519425.742985453
321,751529.9668183164
2,1, 7,21, 0,19,30.00,40.00,SummerDesignDay
8,22.250283638762555
10,6456115.663922702
321,752911.9554937901
2,1, 7,21, 0,19,40.00,50.00,SummerDesignDay
8,22.186663881675249
10,6388893.149833566
321,754348.6739044576
2,1, 7,21, 0,19,50.00,60.00,SummerDesignDay
8,22.12288033238562
10,6324612.982410429
321,471317.7324826162
2,1, 7,21, 0,19, 0.00,60.00,SummerDesignDay
555,28.408588384584225
595,23.999111986595705
635,23.998993756094504
675,23.99943541497125
715,23.998911260276544
755,23.99898438070278
2,1, 7,21, 0,20, 0.00,10.00,SummerDesignDay
8,22.076007189719684
10,4410228.634352897
321,265532.6184576257
2,1, 7,21, 0,20,10.00,20.00,SummerDesignDay
8,22.029043318072469
10,4308290.281659288
321,671413.5753592606
2,1, 7,21, 0,20,20.00,30.00,SummerDesignDay
8,21.98199252605304
10,4224404.356682957
321,675353.099480898
2,1, 7,21, 0,20,30.00,40.00,SummerDesignDay
8,21.934858758847967
10,4126391.979639043
321,12000.0
2,1, 7,21, 0,20,40.00,50.00,SummerDesignDay
8,21.887632995496593
10,4028381.2216328808
321,670714.7069318887
2,1, 7,21, 0,20,50.00,60.00,SummerDesignDay
8,21.84032373907298
10,3929014.8384725537
321,673773.7316260189
2,1, 7,21, 0,20, 0.00,60.00,SummerDesignDay
555,27.674974463867497
595,23.999745927228898
635,23.999632329178629
675,23.999762431429997
715,23.999553845676816
755,23.99967379349431
2,1, 7,21, 0,21, 0.00,10.00,SummerDesignDay
8,21.801546565825509
10,3859980.855377667
321,240550.22850842324
2,1, 7,21, 0,21,10.00,20.00,SummerDesignDay
8,21.76271101694355
10,3805437.7485666584
321,443710.1240094666
2,1, 7,21, 0,21,20.00,30.00,SummerDesignDay
8,21.723820025286508
10,3758769.9238074945
321,672314.7307649145
2,1, 7,21, 0,21,30.00,40.00,SummerDesignDay
8,21.684865349420268
10,3717432.9939037666
321,521411.52117650068
2,1, 7,21, 0,21,40.00,50.00,SummerDesignDay
8,21.64585085731248
10,3680219.400679312
321,165782.23284557029
2,1, 7,21, 0,21,50.00,60.00,SummerDesignDay
8,21.60678130377771
10,3646482.3027647028
321,671291.7488059049
2,1, 7,21, 0,21, 0.00,60.00,SummerDesignDay
555,27.02102145905874
595,23.999890276736079
635,23.999791529288968
675,23.999851225262643
715,23.999807262263177
755,23.99990679214558
2,1, 7,21, 0,22, 0.00,10.00,SummerDesignDay
8,21.56764737497003
10,1097224.3626271336
321,676080.4207036635
2,1, 7,21, 0,22,10.00,20.00,SummerDesignDay
8,21.528453025200269
10,1108715.2035189134
321,137985.4943401749
2,1, 7,21, 0,22,20.00,30.00,SummerDesignDay
8,21.489203608374294
10,1004900.2410520293
321,760516.4206067758
2,1, 7,21, 0,22,30.00,40.00,SummerDesignDay
8,21.44988894693607
10,1120263.242944992
321,673483.870457135
2,1, 7,21, 0,22,40.00,50.00,SummerDesignDay
8,21.410513341264765
10,1004900.2410520293
321,277651.06370944718
2,1, 7,21, 0,22,50.00,60.00,SummerDesignDay
8,21.371081521590339
10,1098305.9128974034
321,407019.4824029835
2,1, 7,21, 0,22, 0.00,60.00,SummerDesignDay
555,26.69888784324481
595,25.48700726127829
635,25.64865264278833
675,25.751649781933684
715,25.63629326261359
755,25.99701128860677
2,1, 7,21, 0,23, 0.00,10.00,SummerDesignDay
8,21.340367013881254
10,1072342.4849619244
321,591360.8932135999
2,1, 7,21, 0,23,10.00,20.00,SummerDesignDay
8,21.30961596310197
10,1024605.314615197
321,12000.0
2,1, 7,21, 0,23,20.00,30.00,SummerDesignDay
8,21.27883206169926
10,1004900.2410520293
321,116572.68220994661
2,1, 7,21, 0,23,30.00,40.00,SummerDesignDay
8,21.248005985660276
10,1004900.2410520293
321,474275.4804765305
2,1, 7,21, 0,23,40.00,50.00,SummerDesignDay
8,21.21714394012603
10,1004900.2410520293
321,12000.0
2,1, 7,21, 0,23,50.00,60.00,SummerDesignDay
8,21.186243969194629
10,1004900.2410520293
321,582372.9172476124
2,1, 7,21, 0,23, 0.00,60.00,SummerDesignDay
555,26.432291196708847
595,26.343536576256978
635,26.4730485397927
675,26.66351496182037
715,26.457158895595943
755,26.98876243927516
2,1, 7,21, 0,24, 0.00,10.00,SummerDesignDay
8,21.155310837526526
10,876225.8468468279
321,12000.0
2,1, 7,21, 0,24,10.00,20.00,SummerDesignDay
8,21.12433685554014
10,876225.8468468279
321,395196.0145188494
2,1, 7,21, 0,24,20.00,30.00,SummerDesignDay
8,21.0933245611684
10,876225.8468468279
321,199992.1199447126
2,1, 7,21, 0,24,30.00,40.00,SummerDesignDay
8,21.062275376793069
10,876225.8468468279
321,12000.0
2,1, 7,21, 0,24,40.00,50.00,SummerDesignDay
8,21.031192991283075
10,876225.8468468279
321,580747.8245266522
2,1, 7,21, 0,24,50.00,60.00,SummerDesignDay
8,21.000068174984919
10,876225.8468468279
321,12000.0
2,1, 7,21, 0,24, 0.00,60.00,SummerDesignDay
555,26.244666092247539
595,26.364765716187056
635,26.45573238300375
675,26.76096588943844
715,26.44089507822157
755,27.117582902583995
3,1, 7,21, 0,SummerDesignDay
556,61.732852370215798,53.28978055670108,15,20,69.33221580132619, 6,20
596,59.774144244035117,53.26425336304379,22,19,72.37057468713658, 7, 6
636,58.84094017056908,52.700841172487127,22,16,72.58299191513672, 7, 6
676,56.235076619517169,47.646009017468887,10,10,70.39122726872688, 7, 5
716,59.071293905990049,52.71712061785701,22,16,72.09247853120393, 7, 6
756,56.322806924459467,48.10128453248221,19,40,70.90070418084633, 7, 5
4,1, 7
7,27.120125000000006,22.9,21, 5,60,32.0,21,14,60
1,WINDSOR INTL AP ANN HTG 99.6% CONDNS DB,  42.28, -82.96,  -5.00, 189.60
2,1, 1,21, 0, 1, 0.00,10.00,WinterDesignDay
8,-15.500002903810355
10,876225.8468468279
321,9008539.370338064
2,1, 1,21, 0, 1,10.00,20.00,WinterDesignDay
8,-15.500002903810355
10,876225.8468468279
321,9119632.947700153
2,1, 1,21, 0, 1,20.00,30.00,WinterDesignDay
8,-15.500002903810355
10,876225.8468468279
321,9666666.246888405
2,1, 1,21, 0, 1,30.00,40.00,WinterDesignDay
8,-15.500002903810355
10,876225.8468468279
321,9200508.893974988
2,1, 1,21, 0, 1,40.00,50.00,WinterDesignDay
8,-15.500002903810355
10,876225.8468468279
321,9837253.314370566
2,1, 1,21, 0, 1,50.00,60.00,WinterDesignDay
8,-15.500002903810355
10,876225.8468468279
321,9320891.084407872
2,1, 1,21, 0, 1, 0.00,60.00,WinterDesignDay
555,12.166513799543088
595,18.000003047811707
635,18.000100065489734
675,18.000057106444115
715,18.000095244807175
755,18.00005329334879
2,1, 1,21, 0, 2, 0.00,10.00,WinterDesignDay
8,-15.500002903810355
10,876225.8468468279
321,9957982.211706164
2,1, 1,21, 0, 2,10.00,20.00,WinterDesignDay
8,-15.500002903810355
10,876225.8468468279
321,9436861.812263038
2,1, 1,21, 0, 2,20.00,30.00,WinterDesignDay
8,-15.500002903810355
10,876225.8468468279
321,9953568.872869045
2,1, 1,21, 0, 2,30.00,40.00,WinterDesignDay
8,-15.500002903810355
10,876225.8468468279
321,9668273.153308928
2,1, 1,21, 0, 2,40.00,50.00,WinterDesignDay
8,-15.500002903810355
10,876225.8468468279
321,9604067.053525642
2,1, 1,21, 0, 2,50.00,60.00,WinterDesignDay
8,-15.500002903810355
10,876225.8468468279
321,10231986.049598508
2,1, 1,21, 0, 2, 0.00,60.00,WinterDesignDay
555,11.966142449303895
595,18.000010926855059
635,18.000080265968685
675,18.000048174938507
715,18.00007673632003
755,18.00004527916162
2,1, 1,21, 0, 3, 0.00,10.00,WinterDesignDay
8,-15.500002903810355
10,876225.8468468279
321,9712242.187369604
2,1, 1,21, 0, 3,10.00,20.00,WinterDesignDay
8,-15.500002903810355
10,876225.8468468279
321,10341808.791534804
2,1, 1,21, 0, 3,20.00,30.00,WinterDesignDay
8,-15.500002903810355
10,876225.8468468279
321,9818047.01322171
2,1, 1,21, 0, 3,30.00,40.00,WinterDesignDay
8,-15.500002903810355
10,876225.8468468279
321,10449119.126195252
2,1, 1,21, 0, 3,40.00,50.00,WinterDesignDay
8,-15.500002903810355
10,876225.8468468279
321,9921559.963437822
2,1, 1,21, 0, 3,50.00,60.00,WinterDesignDay
8,-15.500002903810355
10,876225.8468468279
321,10357355.82039951
2,1, 1,21, 0, 3, 0.00,60.00,WinterDesignDay
555,11.778853512032349
595,18.000014640896834
635,18.000066201832959
675,18.000041146959594
715,18.00006351484564
755,18.0000388853171
2,1, 1,21, 0, 4, 0.00,10.00,WinterDesignDay
8,-15.500002903810355
10,876225.8468468279
321,10215849.773771832
2,1, 1,21, 0, 4,10.00,20.00,WinterDesignDay
8,-15.500002903810355
10,876225.8468468279
321,10072318.732697109
2,1, 1,21, 0, 4,20.00,30.00,WinterDesignDay
8,-15.500002903810355
10,876225.8468468279
321,10695611.631822154
2,1, 1,21, 0, 4,30.00,40.00,WinterDesignDay
8,-15.500002903810355
10,876225.8468468279
321,10170384.481550798
2,1, 1,21, 0, 4,40.00,50.00,WinterDesignDay
8,-15.500002903810355
10,876225.8468468279
321,10795469.014770374
2,1, 1,21, 0, 4,50.00,60.00,WinterDesignDay
8,-15.500002903810355
10,876225.8468468279
321,10266388.257256454
2,1, 1,21, 0, 4, 0.00,60.00,WinterDesignDay
555,11.605282683287895
595,18.000016419626836
635,18.000056532892136
675,18.000035794506077
715,18.000054415220978
755,18.000033942402486
2,1, 1,21, 0, 5, 0.00,10.00,WinterDesignDay
8,-15.500002903810355
10,876225.8468468279
321,10893057.251903575
2,1, 1,21, 0, 5,10.00,20.00,WinterDesignDay
8,-15.500002903810355
10,876225.8468468279
321,10360282.788734852
2,1, 1,21, 0, 5,20.00,30.00,WinterDesignDay
8,-15.500002903810355
10,876225.8468468279
321,10712282.024894346
2,1, 1,21, 0, 5,30.00,40.00,WinterDesignDay
8,-15.500002903810355
10,876225.8468468279
321,10722772.421290316
2,1, 1,21, 0, 5,40.00,50.00,WinterDesignDay
8,-15.500002903810355
10,876225.8468468279
321,10496764.7638299
2,1, 1,21, 0, 5,50.00,60.00,WinterDesignDay
8,-15.500002903810355
10,876225.8468468279
321,11115783.51166184
2,1, 1,21, 0, 5, 0.00,60.00,WinterDesignDay
555,11.445730926584778
595,18.000017353655165
635,18.00005006203095
675,18.000031797237985
715,18.000048340380827
755,18.00003019009989
2,1, 1,21, 0, 6, 0.00,10.00,WinterDesignDay
8,-15.500002903810355
10,876225.8468468279
321,10585370.626705347
2,1, 1,21, 0, 6,10.00,20.00,WinterDesignDay
8,-15.500002903810355
10,876225.8468468279
321,11206160.962723408
2,1, 1,21, 0, 6,20.00,30.00,WinterDesignDay
8,-15.500002903810355
10,876225.8468468279
321,10671896.565299496
2,1, 1,21, 0, 6,30.00,40.00,WinterDesignDay
8,-15.500002903810355
10,876225.8468468279
321,11294269.03733194
2,1, 1,21, 0, 6,40.00,50.00,WinterDesignDay
8,-15.500002903810355
10,876225.8468468279
321,10756360.693010854
2,1, 1,21, 0, 6,50.00,60.00,WinterDesignDay
8,-15.500002903810355
10,876225.8468468279
321,11021440.472417549
2,1, 1,21, 0, 6, 0.00,60.00,WinterDesignDay
555,11.300471545715695
595,18.000017992104078
635,18.000045863762236
675,18.00002886352976
715,18.000044425667679
755,18.000027385747797
2,1, 1,21, 0, 7, 0.00,10.00,WinterDesignDay
8,-15.500002903810355
10,918737.3216327138
321,19476740.59860819
2,1, 1,21, 0, 7,10.00,20.00,WinterDesignDay
8,-15.500002903810355
10,876225.8468468279
321,11962948.932461054
2,1, 1,21, 0, 7,20.00,30.00,WinterDesignDay
8,-15.500002903810355
10,876225.8468468279
321,17982462.849705817
2,1, 1,21, 0, 7,30.00,40.00,WinterDesignDay
8,-15.500002903810355
10,876225.8468468279
321,16047508.895627814
2,1, 1,21, 0, 7,40.00,50.00,WinterDesignDay
8,-15.500002903810355
10,876225.8468468279
321,16365170.969192982
2,1, 1,21, 0, 7,50.00,60.00,WinterDesignDay
8,-15.500002903810355
10,876225.8468468279
321,15650062.73068529
2,1, 1,21, 0, 7, 0.00,60.00,WinterDesignDay
555,11.175836907267624
595,19.97228502077582
635,19.980041705034009
675,20.002706401173517
715,19.979036656572999
755,20.00143797084729
2,1, 1,21, 0, 8, 0.00,10.00,WinterDesignDay
8,-15.500002903810355
10,1785347.6948889706
321,26497374.623154947
2,1, 1,21, 0, 8,10.00,20.00,WinterDesignDay
8,-15.500002903810355
10,1749702.2424171859
321,16881089.146297944
2,1, 1,21, 0, 8,20.00,30.00,WinterDesignDay
8,-15.500002903810355
10,1749702.2424171859
321,22271113.548817476
2,1, 1,21, 0, 8,30.00,40.00,WinterDesignDay
8,-15.500002903810355
10,1749702.2424171859
321,20270990.243638107
2,1, 1,21, 0, 8,40.00,50.00,WinterDesignDay
8,-15.500002903810355
10,1749702.2424171859
321,20441753.447679417
2,1, 1,21, 0, 8,50.00,60.00,WinterDesignDay
8,-15.500002903810355
10,1749702.2424171859
321,20046660.453711124
2,1, 1,21, 0, 8, 0.00,60.00,WinterDesignDay
555,11.127523465951463
595,21.967027670819936
635,21.974857650377385
675,21.992341635048164
715,21.973902723963517
755,21.995939834441545
2,1, 1,21, 0, 9, 0.00,10.00,WinterDesignDay
8,-15.500002903810355
10,5073514.634075432
321,17774814.58232519
2,1, 1,21, 0, 9,10.00,20.00,WinterDesignDay
8,-15.500002903810355
10,5073514.634075432
321,17301072.355646247
2,1, 1,21, 0, 9,20.00,30.00,WinterDesignDay
8,-15.500002903810355
10,5073514.634075432
321,17016781.444203684
2,1, 1,21, 0, 9,30.00,40.00,WinterDesignDay
8,-15.500002903810355
10,5073514.634075432
321,16782958.15302463
2,1, 1,21, 0, 9,40.00,50.00,WinterDesignDay
8,-15.500002903810355
10,5073514.634075432
321,16588182.362105754
2,1, 1,21, 0, 9,50.00,60.00,WinterDesignDay
8,-15.500002903810355
10,5073514.634075432
321,16557802.536074553
2,1, 1,21, 0, 9, 0.00,60.00,WinterDesignDay
555,11.213224355333468
595,22.000255885541625
635,22.000424655569647