Program Version,EnergyPlus, Version 8.9.0-eba93e8e1b, YMD=2018.11.01 15:54
1,5,Environment Title[],Latitude[deg],Longitude[deg],Time Zone[],Elevation[m]
2,8,Day of Simulation[],Month[],Day of Month[],DST Indicator[1=yes 0=no],Hour[],StartMinute[],EndMinute[],DayType
3,5,Cumulative Day of Simulation[],Month[],Day of Month[],DST Indicator[1=yes 0=no],DayType  ! When Daily Report Variables Requested
4,2,Cumulative Days of Simulation[],Month[]  ! When Monthly Report Variables Requested
5,1,Cumulative Days of Simulation[] ! When Run Period Report Variables Requested
6,1,Calendar Year of Simulation[] ! When Annual Report Variables Requested
7,9,Environment,Site Outdoor Air Drybulb Temperature [C] !Monthly [Value,Min,Day,Hour,Minute,Max,Day,Hour,Minute]
8,1,Environment,Site Outdoor Air Wetbulb Temperature [C] !TimeStep
555,1,SP-ATTIC SYS-0 FLR-2 SCH-- UNDEFINED - HPLCMT-CORE ZN,Zone Air Temperature [C] !Hourly
556,7,SP-ATTIC SYS-0 FLR-2 SCH-- UNDEFINED - HPLCMT-CORE ZN,Zone Air Relative Humidity [%] !Daily [Value,Min,Hour,Minute,Max,Hour,Minute]
595,1,SP-CORE_ZN SYS-3 FLR-1 SCH-A HPLCMT-CORE ZN,Zone Air Temperature [C] !Hourly
596,7,SP-CORE_ZN SYS-3 FLR-1 SCH-A HPLCMT-CORE ZN,Zone Air Relative Humidity [%] !Daily [Value,Min,Hour,Minute,Max,Hour,Minute]
635,1,SP-PERIMETER_ZN_1 SYS-3 FLR-1 SCH-A HPLCMT-SOUTH ZN,Zone Air Temperature [C] !Hourly
636,7,SP-PERIMETER_ZN_1 SYS-3 FLR-1 SCH-A HPLCMT-SOUTH ZN,Zone Air Relative Humidity [%] !Daily [Value,Min,Hour,Minute,Max,Hour,Minute]
675,1,SP-PERIMETER_ZN_2 SYS-3 FLR-1 SCH-A HPLCMT-EAST ZN,Zone Air Temperature [C] !Hourly
676,7,SP-PERIMETER_ZN_2 SYS-3 FLR-1 SCH-A HPLCMT-EAST ZN,Zone Air Relative Humidity [%] !Daily [Value,Min,Hour,Minute,Max,Hour,Minute]
715,1,SP-PERIMETER_ZN_3 SYS-3 FLR-1 SCH-A HPLCMT-NORTH ZN,Zone Air Temperature [C] !Hourly
716,7,SP-PERIMETER_ZN_3 SYS-3 FLR-1 SCH-A HPLCMT-NORTH ZN,Zone Air Relative Humidity [%] !Daily [Value,Min,Hour,Minute,Max,Hour,Minute]
755,1,SP-PERIMETER_ZN_4 SYS-3 FLR-1 SCH-A HPLCMT-WEST ZN,Zone Air Temperature [C] !Hourly
756,7,SP-PERIMETER_ZN_4 SYS-3 FLR-1 SCH-A HPLCMT-WEST ZN,Zone Air Relative Humidity [%] !Daily [Value,Min,Hour,Minute,Max,Hour,Minute]
10,1,Electricity:Facility [J] !TimeStep
321,1,Gas:Facility [J] !TimeStep
End of Data Dictionary
1,OTTAWA=MACDONALD-CARTIER INTL ANN CLG .4% CONDNS DB=>MWB,  45.32, -75.67,  -5.00, 114.90
2,1, 7,21, 0, 1, 0.00,10.00,SummerDesignDay
8,19.2840458690032
10,1857765.2651652904
321,12000.0
2,1, 7,21, 0, 1,10.00,20.00,SummerDesignDay
8,19.25220058801155
10,1857765.2651652904
321,12000.0
2,1, 7,21, 0, 1,20.00,30.00,SummerDesignDay
8,19.2203165671003
10,1857765.2651652904
321,12000.0
2,1, 7,21, 0, 1,30.00,40.00,SummerDesignDay
8,19.188388626363016
10,1857765.2651652904
321,12000.0
2,1, 7,21, 0, 1,40.00,50.00,SummerDesignDay
8,19.15642770709394
10,1857765.2651652904
321,12000.0
2,1, 7,21, 0, 1,50.00,60.00,SummerDesignDay
8,19.124427397166604
10,1857765.2651652904
321,125046.62235880897
2,1, 7,21, 0, 1, 0.00,60.00,SummerDesignDay
555,25.67436785467625
595,26.42479157131973
635,26.603378358778604
675,27.30436500504973
715,26.559631431533238
755,27.851073547911054
2,1, 7,21, 0, 2, 0.00,10.00,SummerDesignDay
8,19.103070457286994
10,1857765.2651652904
321,464857.6427116481
2,1, 7,21, 0, 2,10.00,20.00,SummerDesignDay
8,19.08170119193842
10,1857765.2651652904
321,12000.0
2,1, 7,21, 0, 2,20.00,30.00,SummerDesignDay
8,19.06030939273045
10,1857765.2651652904
321,12000.0
2,1, 7,21, 0, 2,30.00,40.00,SummerDesignDay
8,19.03890076386851
10,1857765.2651652904
321,12000.0
2,1, 7,21, 0, 2,40.00,50.00,SummerDesignDay
8,19.01747444558601
10,1857765.2651652904
321,12000.0
2,1, 7,21, 0, 2,50.00,60.00,SummerDesignDay
8,18.996036037989819
10,1857765.2651652904
321,12000.0
2,1, 7,21, 0, 2, 0.00,60.00,SummerDesignDay
555,25.532553891368594
595,26.296470405078457
635,26.446716947239307
675,27.17715305322294
715,26.410044494854679
755,27.708794248829077
2,1, 7,21, 0, 3, 0.00,10.00,SummerDesignDay
8,18.97994058577143
10,1857765.2651652904
321,551270.4758174674
2,1, 7,21, 0, 3,10.00,20.00,SummerDesignDay
8,18.96383509390068
10,1857765.2651652904
321,12000.0
2,1, 7,21, 0, 3,20.00,30.00,SummerDesignDay
8,18.947724870466826
10,1857765.2651652904
321,12000.0
2,1, 7,21, 0, 3,30.00,40.00,SummerDesignDay
8,18.931599991201066
10,1857765.2651652904
321,12000.0
2,1, 7,21, 0, 3,40.00,50.00,SummerDesignDay
8,18.915470425479847
10,1857765.2651652904
321,12000.0
2,1, 7,21, 0, 3,50.00,60.00,SummerDesignDay
8,18.8993255989201
10,1857765.2651652904
321,12000.0
2,1, 7,21, 0, 3, 0.00,60.00,SummerDesignDay
555,25.406730331572818
595,26.174993279267868
635,26.29911647396565
675,27.050554064301637
715,26.26857148072256
755,27.564475701945708
2,1, 7,21, 0, 4, 0.00,10.00,SummerDesignDay
8,18.883176400800605
10,1857765.2651652904
321,553015.9254035186
2,1, 7,21, 0, 4,10.00,20.00,SummerDesignDay
8,18.867011710849643
10,1857765.2651652904
321,12000.0
2,1, 7,21, 0, 4,20.00,30.00,SummerDesignDay
8,18.850837592647797
10,1857765.2651652904
321,12000.0
2,1, 7,21, 0, 4,30.00,40.00,SummerDesignDay
8,18.834658360362007
10,1857765.2651652904
321,12000.0
2,1, 7,21, 0, 4,40.00,50.00,SummerDesignDay
8,18.8184648850153
10,1857765.2651652904
321,12000.0
2,1, 7,21, 0, 4,50.00,60.00,SummerDesignDay
8,18.8022655410338
10,1857765.2651652904
321,12000.0
2,1, 7,21, 0, 4, 0.00,60.00,SummerDesignDay
555,25.28739245601871
595,26.057483112456454
635,26.156386329438705
675,26.92590943973939
715,26.13151387642795
755,27.422299849252
2,1, 7,21, 0, 5, 0.00,10.00,SummerDesignDay
8,18.79145567867417
10,1857765.2651652904
321,554733.9981323357
2,1, 7,21, 0, 5,10.00,20.00,SummerDesignDay
8,18.780646332866213
10,1857765.2651652904
321,12000.0
2,1, 7,21, 0, 5,20.00,30.00,SummerDesignDay
8,18.76983296444122
10,1857765.2651652904
321,12000.0
2,1, 7,21, 0, 5,30.00,40.00,SummerDesignDay
8,18.75901007085189
10,1857765.2651652904
321,12000.0
2,1, 7,21, 0, 5,40.00,50.00,SummerDesignDay
8,18.7481869937485
10,1857765.2651652904
321,12000.0
2,1, 7,21, 0, 5,50.00,60.00,SummerDesignDay
8,18.737365749092537
10,1857765.2651652904
321,12000.0
2,1, 7,21, 0, 5, 0.00,60.00,SummerDesignDay
555,25.187349163977499
595,25.94264610325135
635,26.021516189556299
675,26.845838523700864
715,26.012395450839266
755,27.288370741793398
2,1, 7,21, 0, 6, 0.00,10.00,SummerDesignDay
8,18.7481869937485
10,1857765.2651652904
321,556524.5716820259
2,1, 7,21, 0, 6,10.00,20.00,SummerDesignDay
8,18.75901007085189
10,1866294.426716229
321,12000.0
2,1, 7,21, 0, 6,20.00,30.00,SummerDesignDay
8,18.76983296444122
10,1866541.9761626365
321,12000.0
2,1, 7,21, 0, 6,30.00,40.00,SummerDesignDay
8,18.780646332866213
10,1867692.3384334823
321,12000.0
2,1, 7,21, 0, 6,40.00,50.00,SummerDesignDay
8,18.79145567867417
10,1869195.6484459437
321,12000.0
2,1, 7,21, 0, 6,50.00,60.00,SummerDesignDay
8,18.8022655410338
10,1870688.650088351
321,12000.0
2,1, 7,21, 0, 6, 0.00,60.00,SummerDesignDay
555,25.369663462301749
595,25.90690086476866
635,26.025832848352466
675,27.520810841779029
715,26.148670205524686
755,27.2681354840261
2,1, 7,21, 0, 7, 0.00,10.00,SummerDesignDay
8,18.840052605786814
10,4383289.0759778129
321,539870.2439014721
2,1, 7,21, 0, 7,10.00,20.00,SummerDesignDay
8,18.87778619489805
10,3987283.1435723898
321,12000.0
2,1, 7,21, 0, 7,20.00,30.00,SummerDesignDay
8,18.915470425479847
10,3707556.6025456136
321,12000.0
2,1, 7,21, 0, 7,30.00,40.00,SummerDesignDay
8,18.953096118062495
10,3478850.8086980257
321,12000.0
2,1, 7,21, 0, 7,40.00,50.00,SummerDesignDay
8,18.99066883495391
10,3378369.247335134
321,12000.0
2,1, 7,21, 0, 7,50.00,60.00,SummerDesignDay
8,19.02819215483863
10,3332454.7189846497
321,12000.0
2,1, 7,21, 0, 7, 0.00,60.00,SummerDesignDay
555,25.806792856263887
595,24.120963368871647
635,24.095200775497916
675,24.34952040339721
715,24.11498856120033
755,24.1200890593273
2,1, 7,21, 0, 8, 0.00,10.00,SummerDesignDay
8,19.119090922986229
10,4343413.232555787
321,576882.01446938
2,1, 7,21, 0, 8,10.00,20.00,SummerDesignDay
8,19.209676482065853
10,4346372.724224931
321,12000.0
2,1, 7,21, 0, 8,20.00,30.00,SummerDesignDay
8,19.299951906634847
10,4342578.961956775
321,12000.0
2,1, 7,21, 0, 8,30.00,40.00,SummerDesignDay
8,19.389928824990219
10,4343238.772446298
321,581594.8623982467
2,1, 7,21, 0, 8,40.00,50.00,SummerDesignDay
8,19.4795823892733
10,4347184.793382345
321,12000.0
2,1, 7,21, 0, 8,50.00,60.00,SummerDesignDay
8,19.568935475929295
10,4353571.479218743
321,12000.0
2,1, 7,21, 0, 8, 0.00,60.00,SummerDesignDay
555,26.496496532303686
595,23.999595356550189
635,23.999607963341537
675,23.998712764482368
715,23.999587946335074
755,23.999865708705618
2,1, 7,21, 0, 9, 0.00,10.00,SummerDesignDay
8,19.66844507688812
10,8293726.045979297
321,848487.1083189666
2,1, 7,21, 0, 9,10.00,20.00,SummerDesignDay
8,19.767573179707669
10,8372830.78091989
321,898651.7878728221
2,1, 7,21, 0, 9,20.00,30.00,SummerDesignDay
8,19.866330746445795
10,8409340.592802462
321,898850.835166492
2,1, 7,21, 0, 9,30.00,40.00,SummerDesignDay
8,19.964711871061558
10,8453410.50527719
321,899050.9496457041
2,1, 7,21, 0, 9,40.00,50.00,SummerDesignDay
8,20.062727728864816
10,8491933.702958055
321,899250.6067327518
2,1, 7,21, 0, 9,50.00,60.00,SummerDesignDay
8,20.160375627757714
10,8526589.194698956
321,840127.530687006
2,1, 7,21, 0, 9, 0.00,60.00,SummerDesignDay
555,27.285586344580108
595,23.998554822928829
635,23.998797367604568
675,23.998643954635204
715,23.998763413947903
755,23.999485382422777
2,1, 7,21, 0,10, 0.00,10.00,SummerDesignDay
8,20.247432286023
10,9298475.717451364
321,773773.6110304507
2,1, 7,21, 0,10,10.00,20.00,SummerDesignDay
8,20.334198251055687
10,9337676.748225695
321,773151.7141095244
2,1, 7,21, 0,10,20.00,30.00,SummerDesignDay
8,20.420674889330156
10,9372068.724702517
321,772487.3423556938
2,1, 7,21, 0,10,30.00,40.00,SummerDesignDay
8,20.50686410461129
10,9409471.478773734
321,771807.6315660592
2,1, 7,21, 0,10,40.00,50.00,SummerDesignDay
8,20.59277197915242
10,9440480.978664738
321,771113.3411044175
2,1, 7,21, 0,10,50.00,60.00,SummerDesignDay
8,20.67839100058158
10,9464770.038258352
321,770404.0039742788
2,1, 7,21, 0,10, 0.00,60.00,SummerDesignDay
555,28.0632884775311
595,23.998123571923036
635,23.998308212316759
675,24.000637670055157
715,23.998343968271667
755,23.999202850814528
2,1, 7,21, 0,11, 0.00,10.00,SummerDesignDay
8,20.75370382828009
10,9480593.07867155
321,1840780.0225992939
2,1, 7,21, 0,11,10.00,20.00,SummerDesignDay
8,20.82879725584293
10,9516429.036937863
321,1252441.7868368014
2,1, 7,21, 0,11,20.00,30.00,SummerDesignDay
8,20.90366855164364
10,9531791.867890982
321,1365735.3410277542
2,1, 7,21, 0,11,30.00,40.00,SummerDesignDay
8,20.978327197140595
10,9549749.433472384
321,1743488.6412235762
2,1, 7,21, 0,11,40.00,50.00,SummerDesignDay
8,21.052770435649987
10,9566991.314016998
321,1252069.3366344392
2,1, 7,21, 0,11,50.00,60.00,SummerDesignDay
8,21.126998315025806
10,9585875.028261655
321,1825798.3840389285
2,1, 7,21, 0,11, 0.00,60.00,SummerDesignDay
555,28.71657068637308
595,23.998046121629455
635,23.99794420723188
675,23.998785267215273
715,23.998206668424357
755,23.999059035050878
2,1, 7,21, 0,12, 0.00,10.00,SummerDesignDay
8,21.176364764512436
10,9600360.85446671
321,1270773.7989028479
2,1, 7,21, 0,12,10.00,20.00,SummerDesignDay
8,21.225636252128049
10,9616688.076497602
321,1251628.3940057967
2,1, 7,21, 0,12,20.00,30.00,SummerDesignDay
8,21.27481408813442
10,9634733.649710004
321,1840780.0225992939
2,1, 7,21, 0,12,30.00,40.00,SummerDesignDay
8,21.32389714161367
10,9653415.8880832
321,1252210.953662844
2,1, 7,21, 0,12,40.00,50.00,SummerDesignDay
8,21.372882039030619
10,9678698.70163319
321,1644660.6370396636
2,1, 7,21, 0,12,50.00,60.00,SummerDesignDay
8,21.421778222706306
10,9702634.326173306
321,1473510.3450209832
2,1, 7,21, 0,12, 0.00,60.00,SummerDesignDay
555,29.204778474435064
595,23.99781653236091
635,23.99779780208155
675,23.99873970647604
715,23.99798317893671
755,23.99893236861148
2,1, 7,21, 0,13, 0.00,10.00,SummerDesignDay
8,21.460829759656176
10,9644668.444646426
321,1251830.3952794434
2,1, 7,21, 0,13,10.00,20.00,SummerDesignDay
8,21.499817003159384
10,9657829.490709676
321,1840780.0225992939
2,1, 7,21, 0,13,20.00,30.00,SummerDesignDay
8,21.53875017563149
10,9669924.348026444
321,1252346.7948516524
2,1, 7,21, 0,13,30.00,40.00,SummerDesignDay
8,21.57761871831439
10,9681033.92388376
321,1447743.208706541
2,1, 7,21, 0,13,40.00,50.00,SummerDesignDay
8,21.616433450967234
10,9693342.038222524
321,1668640.4362035064
2,1, 7,21, 0,13,50.00,60.00,SummerDesignDay
8,21.655184624488759
10,9704048.015982721
321,1252005.4262724289
2,1, 7,21, 0,13, 0.00,60.00,SummerDesignDay
555,29.516645169118275
595,23.998067479219704
635,23.997896176495986
675,23.99882946929041
715,23.998188312110725
755,23.99905754910536
2,1, 7,21, 0,14, 0.00,10.00,SummerDesignDay
8,21.67937576104208
10,9711485.11312981
321,1840780.0225992939
2,1, 7,21, 0,14,10.00,20.00,SummerDesignDay
8,21.703544513972305
10,9722098.677069495
321,1252480.5974011245
2,1, 7,21, 0,14,20.00,30.00,SummerDesignDay
8,21.727690125397957
10,9737155.013389215
321,1251539.1598866457
2,1, 7,21, 0,14,30.00,40.00,SummerDesignDay
8,21.751812391480358
10,9758732.396801439
321,1840780.0225992939
2,1, 7,21, 0,14,40.00,50.00,SummerDesignDay
8,21.7759121945202
10,9786041.925697383
321,1252154.8334247424
2,1, 7,21, 0,14,50.00,60.00,SummerDesignDay
8,21.799989308895414
10,9817743.588491837
321,1721416.1397307013
2,1, 7,21, 0,14, 0.00,60.00,SummerDesignDay
555,29.66705881871272
595,23.998189606177538
635,23.998179520468253
675,23.998886466627395
715,23.99828969473673
755,23.999039480191589
2,1, 7,21, 0,15, 0.00,10.00,SummerDesignDay
8,21.799989308895414
10,9907272.735378573
321,1391003.88576652
2,1, 7,21, 0,15,10.00,20.00,SummerDesignDay
8,21.799989308895414
10,9950126.799681033
321,1251751.137237559
2,1, 7,21, 0,15,20.00,30.00,SummerDesignDay
8,21.799989308895414
10,9992370.984497626
321,1840780.0225992939
2,1, 7,21, 0,15,30.00,40.00,SummerDesignDay
8,21.799989308895414
10,10025036.570804079
321,1252291.5253696338
2,1, 7,21, 0,15,40.00,50.00,SummerDesignDay
8,21.799989308895414
10,10049672.911590718
321,1529299.2332112543
2,1, 7,21, 0,15,50.00,60.00,SummerDesignDay
8,21.799989308895414
10,10068296.799477747
321,1590468.3805758749
2,1, 7,21, 0,15, 0.00,60.00,SummerDesignDay
555,29.649175906833944
595,24.01032689130568
635,23.997977168932335
675,23.998682838937368
715,23.997944225056075
755,23.998262831376377
2,1, 7,21, 0,16, 0.00,10.00,SummerDesignDay
8,21.771094855856704
10,10072758.798403269
321,1251937.0661085244
2,1, 7,21, 0,16,10.00,20.00,SummerDesignDay
8,21.742168014681356
10,10070645.542884754
321,1840780.0225992939
2,1, 7,21, 0,16,20.00,30.00,SummerDesignDay
8,21.71320780280698
10,10064869.975549235
321,1252426.1281608213
2,1, 7,21, 0,16,30.00,40.00,SummerDesignDay
8,21.68421463192507
10,10060189.017490387
321,1328740.6849048208
2,1, 7,21, 0,16,40.00,50.00,SummerDesignDay
8,21.655184624488759
10,10060970.431102727
321,1775940.4940578619
2,1, 7,21, 0,16,50.00,60.00,SummerDesignDay
8,21.6261256071541
10,10059101.709174019
321,1252096.7465968356
2,1, 7,21, 0,16, 0.00,60.00,SummerDesignDay
555,29.44406872397241
595,24.083308938960966
635,23.997750795093834
675,23.998575998850474
715,23.997677641553137
755,23.99769330254026
2,1, 7,21, 0,17, 0.00,10.00,SummerDesignDay
8,21.587330220761357
10,10053232.673604966
321,1097535.2556025682
2,1, 7,21, 0,17,10.00,20.00,SummerDesignDay
8,21.548471336507889
10,10040208.052058448
321,1218920.928960313
2,1, 7,21, 0,17,20.00,30.00,SummerDesignDay
8,21.509558190151649
10,10028939.347770196
321,1301098.7074741759
2,1, 7,21, 0,17,30.00,40.00,SummerDesignDay
8,21.470581299934044
10,10017224.942005542
321,1302300.9177639308
2,1, 7,21, 0,17,40.00,50.00,SummerDesignDay
8,21.431549204917386
10,10005434.325673733
321,1273638.2776674503
2,1, 7,21, 0,17,50.00,60.00,SummerDesignDay
8,21.392452600030727
10,9991808.559492434
321,1077689.1000931769
2,1, 7,21, 0,17, 0.00,60.00,SummerDesignDay
555,29.059929455442334
595,24.09991970068928
635,23.99772273455757
675,23.998641190921366
715,23.99769203240976
755,24.005763331234694
2,1, 7,21, 0,18, 0.00,10.00,SummerDesignDay
8,21.343500800253975
10,9565575.344464597
321,813387.5390512796
2,1, 7,21, 0,18,10.00,20.00,SummerDesignDay
8,21.29445517999728
10,9525846.635883827
321,772668.3861326255
2,1, 7,21, 0,18,20.00,30.00,SummerDesignDay
8,21.24531961332415
10,9504700.186826693
321,772009.0164041788
2,1, 7,21, 0,18,30.00,40.00,SummerDesignDay
8,21.196085706061159
10,9481728.834407194
321,771320.5383990394
2,1, 7,21, 0,18,40.00,50.00,SummerDesignDay
8,21.146756926413827
10,9457558.334067688
321,770615.7071304912
2,1, 7,21, 0,18,50.00,60.00,SummerDesignDay
8,21.097333755216899
10,9432193.155723265
321,841477.9363249623
2,1, 7,21, 0,18, 0.00,60.00,SummerDesignDay
555,28.530274237400844
595,24.002402192830116
635,23.998143624972088
675,23.99893163103081
715,23.998127855522058
755,23.99838428261071
2,1, 7,21, 0,19, 0.00,10.00,SummerDesignDay
8,21.023019732832933
10,7015551.934457772
321,712059.1598579949
2,1, 7,21, 0,19,10.00,20.00,SummerDesignDay
8,20.948490549703029
10,6912644.977395481
321,698448.2954688686
2,1, 7,21, 0,19,20.00,30.00,SummerDesignDay
8,20.873745184382885
10,6838405.6820650589
321,520758.04691186509
2,1, 7,21, 0,19,30.00,40.00,SummerDesignDay
8,20.798782612519024
10,6761713.071888645
321,235604.12926954183
2,1, 7,21, 0,19,40.00,50.00,SummerDesignDay
8,20.723605634987398
10,6692382.866420734
321,696589.5026360457
2,1, 7,21, 0,19,50.00,60.00,SummerDesignDay
8,20.648205443782066
10,6624603.479910864
321,698868.8712581678
2,1, 7,21, 0,19, 0.00,60.00,SummerDesignDay
555,27.8708922697846
595,23.999010091640327
635,23.99908734517705
675,23.999450186040549
715,23.99899305034538
755,23.999126888394718
2,1, 7,21, 0,20, 0.00,10.00,SummerDesignDay
8,20.59277197915242
10,4762044.264399363
321,12000.0
2,1, 7,21, 0,20,10.00,20.00,SummerDesignDay
8,20.537219972964399
10,4656185.311082856
321,629806.7675209306
2,1, 7,21, 0,20,20.00,30.00,SummerDesignDay
8,20.48154799091199
10,4568132.372076894
321,97314.6701754681
2,1, 7,21, 0,20,30.00,40.00,SummerDesignDay
8,20.425752225515759
10,4479472.628498889
321,565165.03397854
2,1, 7,21, 0,20,40.00,50.00,SummerDesignDay
8,20.369840248455387
10,4415386.283555498
321,472110.8202656324
2,1, 7,21, 0,20,50.00,60.00,SummerDesignDay
8,20.313807280186916
10,4363619.952586515
321,213458.51206473137
2,1, 7,21, 0,20, 0.00,60.00,SummerDesignDay
555,27.12152473442026
595,23.999687287328525
635,23.999662415375338
675,23.99976504142489
715,23.99962986606074
755,23.99972885097996
2,1, 7,21, 0,21, 0.00,10.00,SummerDesignDay
8,20.267875513679358
10,4321914.686997528
321,632869.2705710677
2,1, 7,21, 0,21,10.00,20.00,SummerDesignDay
8,20.221856772507928
10,4284955.690301666
321,12000.0
2,1, 7,21, 0,21,20.00,30.00,SummerDesignDay
8,20.17575730066602
10,4252201.433678756
321,631561.3108264246
2,1, 7,21, 0,21,30.00,40.00,SummerDesignDay
8,20.129575525226004
10,4222137.082089538
321,12000.0
2,1, 7,21, 0,21,40.00,50.00,SummerDesignDay
8,20.08331608345884
10,4194334.549160901
321,630225.0285361547
2,1, 7,21, 0,21,50.00,60.00,SummerDesignDay
8,20.03696962431749
10,4168272.6100995789
321,12000.0
2,1, 7,21, 0,21, 0.00,60.00,SummerDesignDay
555,26.569412175357699
595,23.99985222734792
635,23.999805418179336
675,23.99985279301967
715,23.99982318861673
755,23.999870558461596
2,1, 7,21, 0,22, 0.00,10.00,SummerDesignDay
8,19.99054090879275
10,2048655.3496881037
321,612890.6818678773
2,1, 7,21, 0,22,10.00,20.00,SummerDesignDay
8,19.944033557607388
10,2050796.597194102
321,435044.99008356317
2,1, 7,21, 0,22,20.00,30.00,SummerDesignDay
8,19.89743885871503
10,2007724.078290709
321,398456.63087490896
2,1, 7,21, 0,22,30.00,40.00,SummerDesignDay
8,19.850760861623937
10,1989957.1094512835
321,720467.2349684762
2,1, 7,21, 0,22,40.00,50.00,SummerDesignDay
8,19.804003776854694
10,2041086.531916187
321,12000.0
2,1, 7,21, 0,22,50.00,60.00,SummerDesignDay
8,19.757157595162949
10,2019018.9653185216
321,632051.0689138721
2,1, 7,21, 0,22, 0.00,60.00,SummerDesignDay
555,26.286018274955123
595,25.60931079785324
635,25.833919030353728
675,26.21934281856205
715,25.795849768956573
755,26.553769325145127
2,1, 7,21, 0,23, 0.00,10.00,SummerDesignDay
8,19.720666551636989
10,2040459.9223679058
321,12000.0
2,1, 7,21, 0,23,10.00,20.00,SummerDesignDay
8,19.684119477065886
10,2020875.6064342482
321,12000.0
2,1, 7,21, 0,23,20.00,30.00,SummerDesignDay
8,19.647526513618759
10,1992724.8712978224
321,12000.0
2,1, 7,21, 0,23,30.00,40.00,SummerDesignDay
8,19.6108822727292
10,1986439.6593704918
321,12000.0
2,1, 7,21, 0,23,40.00,50.00,SummerDesignDay
8,19.574181717726309
10,1986439.6593704918
321,397908.3574029491
2,1, 7,21, 0,23,50.00,60.00,SummerDesignDay
8,19.537434025172329
10,1986439.6593704918
321,209235.19041357295
2,1, 7,21, 0,23, 0.00,60.00,SummerDesignDay
555,26.022812209960365
595,26.53845291934859
635,26.74248534136187
675,27.305690849092529
715,26.689516444176964
755,27.791703282578298
2,1, 7,21, 0,24, 0.00,10.00,SummerDesignDay
8,19.50063519373203
10,1857765.2651652904
321,12000.0
2,1, 7,21, 0,24,10.00,20.00,SummerDesignDay
8,19.463780045562748
10,1857765.2651652904
321,12000.0
2,1, 7,21, 0,24,20.00,30.00,SummerDesignDay
8,19.42687776521098
10,1857765.2651652904
321,12000.0
2,1, 7,21, 0,24,30.00,40.00,SummerDesignDay
8,19.389928824990219
10,1857765.2651652904
321,12000.0
2,1, 7,21, 0,24,40.00,50.00,SummerDesignDay
8,19.352911582935034
10,1857765.2651652904
321,162571.59880062915
2,1, 7,21, 0,24,50.00,60.00,SummerDesignDay
8,19.31585289854638
10,1857765.2651652904
321,434070.8814426659
2,1, 7,21, 0,24, 0.00,60.00,SummerDesignDay
555,25.836855807548387
595,26.55168134909967
635,26.75246060703793
675,27.406434257901183
715,26.701472226870718
755,27.955350267777378
3,1, 7,21, 0,SummerDesignDay
556,56.935291950777507,49.12638060572349,14,60,64.00549594418425, 5,40
596,55.371223930772007,49.315976412801749,22,20,65.29906976226848, 7, 7
636,54.53803188011715,48.89581726711808,22,29,65.39421528920896, 7, 6
676,51.45127656015063,44.962349320266607, 9,20,61.664948106802977, 7, 8
716,54.57341073062356,48.746935084894179,22,29,65.07188875593228, 7, 6
756,51.225369894666737,44.243273259366059,22,40,63.67907615295485, 7, 5
4,1, 7
7,25.183875000000005,20.5,21, 5,60,30.6,21,14,60
1,OTTAWA=MACDONALD-CARTIER INTL ANN HTG 99.6% CONDNS DB,  45.32, -75.67,  -5.00, 114.90
2,1, 1,21, 0, 1, 0.00,10.00,WinterDesignDay
8,-24.2
10,1857765.2651652904
321,10564065.462671407
2,1, 1,21, 0, 1,10.00,20.00,WinterDesignDay
8,-24.2
10,1857765.2651652904
321,10637821.775945265
2,1, 1,21, 0, 1,20.00,30.00,WinterDesignDay
8,-24.2
10,1857765.2651652904
321,10709622.312777622
2,1, 1,21, 0, 1,30.00,40.00,WinterDesignDay
8,-24.2
10,1857765.2651652904
321,10779337.004867152
2,1, 1,21, 0, 1,40.00,50.00,WinterDesignDay
8,-24.2
10,1857765.2651652904
321,11384091.11188696
2,1, 1,21, 0, 1,50.00,60.00,WinterDesignDay
8,-24.2
10,1857765.2651652904
321,10935734.697289497
2,1, 1,21, 0, 1, 0.00,60.00,WinterDesignDay
555,11.260539554323538
595,18.00003168382003
635,18.0001411106697
675,18.00009715430195
715,18.00013637627765
755,18.000091339350037
2,1, 1,21, 0, 2, 0.00,10.00,WinterDesignDay
8,-24.2
10,1857765.2651652904
321,10977656.64281704
2,1, 1,21, 0, 2,10.00,20.00,WinterDesignDay
8,-24.2
10,1857765.2651652904
321,11041261.457245002
2,1, 1,21, 0, 2,20.00,30.00,WinterDesignDay
8,-24.2
10,1857765.2651652904
321,11103818.126447306
2,1, 1,21, 0, 2,30.00,40.00,WinterDesignDay
8,-24.2
10,1857765.2651652904
321,11684763.141456418
2,1, 1,21, 0, 2,40.00,50.00,WinterDesignDay
8,-24.2
10,1857765.2651652904
321,11271247.996859976
2,1, 1,21, 0, 2,50.00,60.00,WinterDesignDay
8,-24.2
10,1857765.2651652904
321,11284979.31965622
2,1, 1,21, 0, 2, 0.00,60.00,WinterDesignDay
555,11.051083512003972
595,18.000032901237789
635,18.00011169051827
675,18.00007938962375
715,18.000108182524298
755,18.000075197046177
2,1, 1,21, 0, 3, 0.00,10.00,WinterDesignDay
8,-24.2
10,1857765.2651652904
321,11343841.082936494
2,1, 1,21, 0, 3,10.00,20.00,WinterDesignDay
8,-24.2
10,1857765.2651652904
321,11401981.603064824
2,1, 1,21, 0, 3,20.00,30.00,WinterDesignDay
8,-24.2
10,1857765.2651652904
321,11965124.759792462
2,1, 1,21, 0, 3,30.00,40.00,WinterDesignDay
8,-24.2
10,1857765.2651652904
321,11578854.160798338
2,1, 1,21, 0, 3,40.00,50.00,WinterDesignDay
8,-24.2
10,1857765.2651652904
321,11571237.075486187
2,1, 1,21, 0, 3,50.00,60.00,WinterDesignDay
8,-24.2
10,1857765.2651652904
321,11626432.098351503
2,1, 1,21, 0, 3, 0.00,60.00,WinterDesignDay
555,10.856593154893714
595,18.00003177251087
635,18.000090703846899
675,18.000065773411085
715,18.00008801358536
755,18.00006262391257
2,1, 1,21, 0, 4, 0.00,10.00,WinterDesignDay
8,-24.2
10,1857765.2651652904
321,11681008.466015412
2,1, 1,21, 0, 4,10.00,20.00,WinterDesignDay
8,-24.2
10,1857765.2651652904
321,12230114.867116012
2,1, 1,21, 0, 4,20.00,30.00,WinterDesignDay
8,-24.2
10,1857765.2651652904
321,11864317.937069262
2,1, 1,21, 0, 4,30.00,40.00,WinterDesignDay
8,-24.2
10,1857765.2651652904
321,11840001.661530447
2,1, 1,21, 0, 4,40.00,50.00,WinterDesignDay
8,-24.2
10,1857765.2651652904
321,11891876.714634462
2,1, 1,21, 0, 4,50.00,60.00,WinterDesignDay
8,-24.2
10,1857765.2651652904
321,11943171.19188264
2,1, 1,21, 0, 4, 0.00,60.00,WinterDesignDay
555,10.677413919109356
595,18.000030148780259
635,18.000076079512878
675,18.00005553347772
715,18.000073951681729
755,18.000052991598204
2,1, 1,21, 0, 5, 0.00,10.00,WinterDesignDay
8,-24.2
10,1857765.2651652904
321,12480922.268590972
2,1, 1,21, 0, 5,10.00,20.00,WinterDesignDay
8,-24.2
10,1857765.2651652904
321,12130071.57301574
2,1, 1,21, 0, 5,20.00,30.00,WinterDesignDay
8,-24.2
10,1857765.2651652904
321,12092464.026443445
2,1, 1,21, 0, 5,30.00,40.00,WinterDesignDay
8,-24.2
10,1857765.2651652904
321,12141133.653104468
2,1, 1,21, 0, 5,40.00,50.00,WinterDesignDay
8,-24.2
10,1857765.2651652904
321,12189245.609301039
2,1, 1,21, 0, 5,50.00,60.00,WinterDesignDay
8,-24.2
10,1857765.2651652904
321,12717653.11958225
2,1, 1,21, 0, 5, 0.00,60.00,WinterDesignDay
555,10.513485219627809
595,18.0000287409182
635,18.000066073813615
675,18.00004792228647
715,18.000064341868116
755,18.00004568377451
2,1, 1,21, 0, 6, 0.00,10.00,WinterDesignDay
8,-24.2
10,1857765.2651652904
321,12377539.164125758
2,1, 1,21, 0, 6,10.00,20.00,WinterDesignDay
8,-24.2
10,1857765.2651652904
321,12329175.994726779
2,1, 1,21, 0, 6,20.00,30.00,WinterDesignDay
8,-24.2
10,1857765.2651652904
321,12374786.793229077
2,1, 1,21, 0, 6,30.00,40.00,WinterDesignDay
8,-24.2
10,1857765.2651652904
321,12419861.565943202
2,1, 1,21, 0, 6,40.00,50.00,WinterDesignDay
8,-24.2
10,1857765.2651652904
321,12940539.467347544
2,1, 1,21, 0, 6,50.00,60.00,WinterDesignDay
8,-24.2
10,1857765.2651652904
321,12607893.715376096
2,1, 1,21, 0, 6, 0.00,60.00,WinterDesignDay
555,10.363520676643973
595,18.000027792595249
635,18.000059362066055
675,18.000042323956696
715,18.000057914800544
755,18.000040185909243
2,1, 1,21, 0, 7, 0.00,10.00,WinterDesignDay
8,-24.2
10,1894949.9801130237
321,20876135.34631501
2,1, 1,21, 0, 7,10.00,20.00,WinterDesignDay
8,-24.2
10,1857765.2651652904
321,13816041.893104542
2,1, 1,21, 0, 7,20.00,30.00,WinterDesignDay
8,-24.2
10,1857765.2651652904
321,19323991.505397254
2,1, 1,21, 0, 7,30.00,40.00,WinterDesignDay
8,-24.2
10,1857765.2651652904
321,18392843.791245477
2,1, 1,21, 0, 7,40.00,50.00,WinterDesignDay
8,-24.2
10,1857765.2651652904
321,17753247.136466266
2,1, 1,21, 0, 7,50.00,60.00,WinterDesignDay
8,-24.2
10,1857765.2651652904
321,17501990.60284761
2,1, 1,21, 0, 7, 0.00,60.00,WinterDesignDay
555,10.2344628666556
595,19.971936299406037
635,19.982222056301358
675,20.00198238526414
715,19.98141999018816
755,20.000500803190965
2,1, 1,21, 0, 8, 0.00,10.00,WinterDesignDay
8,-24.2
10,2762756.5623191928
321,27740552.289719449
2,1, 1,21, 0, 8,10.00,20.00,WinterDesignDay
8,-24.2
10,2731241.660735648
321,19350105.98070448
2,1, 1,21, 0, 8,20.00,30.00,WinterDesignDay
8,-24.2
10,2731241.660735648
321,23641551.024976288
2,1, 1,21, 0, 8,30.00,40.00,WinterDesignDay
8,-24.2
10,2731241.660735648
321,22194974.10068311
2,1, 1,21, 0, 8,40.00,50.00,WinterDesignDay
8,-24.2
10,2731241.660735648
321,22322562.362234817
2,1, 1,21, 0, 8,50.00,60.00,WinterDesignDay
8,-24.2
10,2731241.660735648
321,21470799.95412244
2,1, 1,21, 0, 8, 0.00,60.00,WinterDesignDay
555,10.186072473818742
595,21.967724910346268
635,21.976949196729437
675,21.992783230505557
715,21.97618389795503
755,21.995998668195555
2,1, 1,21, 0, 9, 0.00,10.00,WinterDesignDay
8,-24.2
10,6055054.052393894
321,19672541.630670158
2,1, 1,21, 0, 9,10.00,20.00,WinterDesignDay
8,-24.2
10,6055054.052393894
321,19224950.19930981
2,1, 1,21, 0, 9,20.00,30.00,WinterDesignDay
8,-24.2
10,6055054.052393894
321,18933375.69307102
2,1, 1,21, 0, 9,30.00,40.00,WinterDesignDay
8,-24.2
10,6055054.052393894
321,18693390.561340419
2,1, 1,21, 0, 9,40.00,50.00,WinterDesignDay
8,-24.2
10,6055054.052393894
321,18479001.786642177
2,1, 1,21, 0, 9,50.00,60.00,WinterDesignDay
8,-24.2
10,6055054.052393894
321,18193809.89325121
2,1, 1,21, 0, 9, 0.00,60.00,WinterDesignDay
555,10.276957501359103
595,22.000287967197399
635,22.00045688818969
675,22.00030466110903
715,22.000449401745198
755,22.000272653283348
2,1, 1,21, 0,10, 0.00,10.00,WinterDesignDay
8,-24.2
10,6653325.556209208
321,17471963.402610039
2,1, 1,21, 0,10,10.00,20.00,WinterDesignDay
8,-24.2
10,6653325.556209208
321,17291896.742087395
2,1, 1,21, 0,10,20.00,30.00,WinterDesignDay
8,-24.2
10,6653325.556209208
321,17146437.97580212
2,1, 1,21, 0,10,30.00,40.00,WinterDesignDay
8,-24.2
10,6653325.556209208
321,17016123.172738129
2,1, 1,21, 0,10,40.00,50.00,WinterDesignDay
8,-24.2
10,6653325.556209208
321,16898094.880356675
2,1, 1,21, 0,10,50.00,60.00,WinterDesignDay
8,-24.2
10,6653325.556209208
321,16789705.96424437
2,1, 1,21, 0,10, 0.00,60.00,WinterDesignDay
555,10.460954354553552
595,22.00044666300126
635,22.000769403514984
675,22.000466610702764
715,22.000756759155
755,22.000409726182015
2,1, 1,21, 0,11, 0.00,10.00,WinterDesignDay
8,-24.2
10,6653325.556209208