Program Version,EnergyPlus, Version 8.9.0-eba93e8e1b, YMD=2018.11.01 15:55
1,5,Environment Title[],Latitude[deg],Longitude[deg],Time Zone[],Elevation[m]
2,8,Day of Simulation[],Month[],Day of Month[],DST Indicator[1=yes 0=no],Hour[],StartMinute[],EndMinute[],DayType
3,5,Cumulative Day of Simulation[],Month[],Day of Month[],DST Indicator[1=yes 0=no],DayType  ! When Daily Report Variables Requested
4,2,Cumulative Days of Simulation[],Month[]  ! When Monthly Report Variables Requested
5,1,Cumulative Days of Simulation[] ! When Run Period Report Variables Requested
6,1,Calendar Year of Simulation[] ! When Annual Report Variables Requested
7,9,Environment,Site Outdoor Air Drybulb Temperature [C] !Monthly [Value,Min,Day,Hour,Minute,Max,Day,Hour,Minute]
8,1,Environment,Site Outdoor Air Wetbulb Temperature [C] !TimeStep
357,1,ATTIC ZN,Zone Air Temperature [C] !Hourly
358,7,ATTIC ZN,Zone Air Relative Humidity [%] !Daily [Value,Min,Hour,Minute,Max,Hour,Minute]
397,1,CORE_ZN ZN,Zone Air Temperature [C] !Hourly
398,7,CORE_ZN ZN,Zone Air Relative Humidity [%] !Daily [Value,Min,Hour,Minute,Max,Hour,Minute]
437,1,PERIMETER_ZN_1 ZN,Zone Air Temperature [C] !Hourly
438,7,PERIMETER_ZN_1 ZN,Zone Air Relative Humidity [%] !Daily [Value,Min,Hour,Minute,Max,Hour,Minute]
477,1,PERIMETER_ZN_2 ZN,Zone Air Temperature [C] !Hourly
478,7,PERIMETER_ZN_2 ZN,Zone Air Relative Humidity [%] !Daily [Value,Min,Hour,Minute,Max,Hour,Minute]
517,1,PERIMETER_ZN_3 ZN,Zone Air Temperature [C] !Hourly
518,7,PERIMETER_ZN_3 ZN,Zone Air Relative Humidity [%] !Daily [Value,Min,Hour,Minute,Max,Hour,Minute]
557,1,PERIMETER_ZN_4 ZN,Zone Air Temperature [C] !Hourly
558,7,PERIMETER_ZN_4 ZN,Zone Air Relative Humidity [%] !Daily [Value,Min,Hour,Minute,Max,Hour,Minute]
10,1,Electricity:Facility [J] !TimeStep
708,1,DistrictCooling:Facility [J] !TimeStep
671,1,DistrictHeating:Facility [J] !TimeStep
End of Data Dictionary
1,YELLOWKNIFE AP ANN CLG .4% CONDNS DB=>MWB,  62.46,-114.44,  -7.00, 205.70
2,1, 7,21, 0, 1, 0.00,10.00,SummerDesignDay
8,13.582660593207148
10,588883.2432939032
671,0.0
708,0.0
2,1, 7,21, 0, 1,10.00,20.00,SummerDesignDay
8,13.552225261379507
10,588883.2432939032
671,0.0
708,0.0
2,1, 7,21, 0, 1,20.00,30.00,SummerDesignDay
8,13.521753554065869
10,588883.2432939032
671,0.0
708,0.0
2,1, 7,21, 0, 1,30.00,40.00,SummerDesignDay
8,13.491239669468463
10,588883.2432939032
671,0.0
708,0.0
2,1, 7,21, 0, 1,40.00,50.00,SummerDesignDay
8,13.460705579713864
10,588883.2432939032
671,0.0
708,0.0
2,1, 7,21, 0, 1,50.00,60.00,SummerDesignDay
8,13.43013511777116
10,588883.2432939032
671,0.0
708,0.0
2,1, 7,21, 0, 1, 0.00,60.00,SummerDesignDay
357,25.419458183133015
397,25.10257404751559
437,25.2721613233178
477,25.194250132482649
517,25.084500388033786
557,25.770811436826496
2,1, 7,21, 0, 2, 0.00,10.00,SummerDesignDay
8,13.40973245557951
10,588883.2432939032
671,0.0
708,0.0
2,1, 7,21, 0, 2,10.00,20.00,SummerDesignDay
8,13.389321077939915
10,588883.2432939032
671,0.0
708,0.0
2,1, 7,21, 0, 2,20.00,30.00,SummerDesignDay
8,13.368889185101893
10,588883.2432939032
671,0.0
708,0.0
2,1, 7,21, 0, 2,30.00,40.00,SummerDesignDay
8,13.348439009156916
10,588883.2432939032
671,0.0
708,0.0
2,1, 7,21, 0, 2,40.00,50.00,SummerDesignDay
8,13.327986740557398
10,588883.2432939032
671,0.0
708,0.0
2,1, 7,21, 0, 2,50.00,60.00,SummerDesignDay
8,13.307507118241113
10,588883.2432939032
671,0.0
708,0.0
2,1, 7,21, 0, 2, 0.00,60.00,SummerDesignDay
357,25.262983687766469
397,24.950546916153475
437,25.07831579383634
477,25.011175171141998
517,24.90459417711608
557,25.543344064991954
2,1, 7,21, 0, 3, 0.00,10.00,SummerDesignDay
8,13.292149527800867
10,588883.2432939032
671,0.0
708,0.0
2,1, 7,21, 0, 3,10.00,20.00,SummerDesignDay
8,13.276774263645676
10,588883.2432939032
671,0.0
708,0.0
2,1, 7,21, 0, 3,20.00,30.00,SummerDesignDay
8,13.26138714285808
10,588883.2432939032
671,0.0
708,0.0
2,1, 7,21, 0, 3,30.00,40.00,SummerDesignDay
8,13.246004796135189
10,588883.2432939032
671,0.0
708,0.0
2,1, 7,21, 0, 3,40.00,50.00,SummerDesignDay
8,13.230604418546636
10,588883.2432939032
671,0.0
708,0.0
2,1, 7,21, 0, 3,50.00,60.00,SummerDesignDay
8,13.215192312230407
10,588883.2432939032
671,0.0
708,0.0
2,1, 7,21, 0, 3, 0.00,60.00,SummerDesignDay
357,25.115144207201668
397,24.81348173312874
437,24.901346586245628
477,24.843478105472557
517,24.743786325135685
557,25.337180576385788
2,1, 7,21, 0, 4, 0.00,10.00,SummerDesignDay
8,13.199784844146088
10,588883.2432939032
671,0.0
708,0.0
2,1, 7,21, 0, 4,10.00,20.00,SummerDesignDay
8,13.184359740235623
10,588883.2432939032
671,0.0
708,0.0
2,1, 7,21, 0, 4,20.00,30.00,SummerDesignDay
8,13.16892247673821
10,588883.2432939032
671,0.0
708,0.0
2,1, 7,21, 0, 4,30.00,40.00,SummerDesignDay
8,13.15348978290439
10,588883.2432939032
671,0.0
708,0.0
2,1, 7,21, 0, 4,40.00,50.00,SummerDesignDay
8,13.138039361294093
10,588883.2432939032
671,0.0
708,0.0
2,1, 7,21, 0, 4,50.00,60.00,SummerDesignDay
8,13.122577036503083
10,588883.2432939032
671,0.0
708,0.0
2,1, 7,21, 0, 4, 0.00,60.00,SummerDesignDay
357,24.98423160169747
397,24.68431630092815
437,24.73902337558522
477,24.72508902579881
517,24.633719530885867
557,25.14835349825486
2,1, 7,21, 0, 5, 0.00,10.00,SummerDesignDay
8,13.112266222112464
10,588883.2432939032
671,0.0
708,0.0
2,1, 7,21, 0, 5,10.00,20.00,SummerDesignDay
8,13.10196152097974
10,588883.2432939032
671,0.0
708,0.0
2,1, 7,21, 0, 5,20.00,30.00,SummerDesignDay
8,13.091643434542388
10,588883.2432939032
671,0.0
708,0.0
2,1, 7,21, 0, 5,30.00,40.00,SummerDesignDay
8,13.081321778392012
10,588883.2432939032
671,0.0
708,0.0
2,1, 7,21, 0, 5,40.00,50.00,SummerDesignDay
8,13.0709928118608
10,588883.2432939032
671,0.0
708,0.0
2,1, 7,21, 0, 5,50.00,60.00,SummerDesignDay
8,13.060673055344955
10,588883.2432939032
671,0.0
708,0.0
2,1, 7,21, 0, 5, 0.00,60.00,SummerDesignDay
357,24.99238875814528
397,24.635198214034074
437,24.659427308295848
477,25.258608838302839
517,24.980218976843273
557,25.05651830796393
2,1, 7,21, 0, 6, 0.00,10.00,SummerDesignDay
8,13.0709928118608
10,588883.2432939032
671,0.0
708,0.0
2,1, 7,21, 0, 6,10.00,20.00,SummerDesignDay
8,13.081321778392012
10,588883.2432939032
671,0.0
708,0.0
2,1, 7,21, 0, 6,20.00,30.00,SummerDesignDay
8,13.091643434542388
10,588883.2432939032
671,0.0
708,0.0
2,1, 7,21, 0, 6,30.00,40.00,SummerDesignDay
8,13.10196152097974
10,588883.2432939032
671,0.0
708,0.0
2,1, 7,21, 0, 6,40.00,50.00,SummerDesignDay
8,13.112266222112464
10,588883.2432939032
671,0.0
708,0.0
2,1, 7,21, 0, 6,50.00,60.00,SummerDesignDay
8,13.122577036503083
10,588883.2432939032
671,0.0
708,0.0
2,1, 7,21, 0, 6, 0.00,60.00,SummerDesignDay
357,25.11758704072797
397,24.72694030439459
437,24.74281065772763
477,26.6344765483309
517,25.332550530509143
557,25.115715010374733
2,1, 7,21, 0, 7, 0.00,10.00,SummerDesignDay
8,13.15862867833626
10,588883.2432939032
671,0.0
708,5349064.454672574
2,1, 7,21, 0, 7,10.00,20.00,SummerDesignDay
8,13.194644070480845
10,588883.2432939032
671,0.0
708,163465.20315361038
2,1, 7,21, 0, 7,20.00,30.00,SummerDesignDay
8,13.230604418546636
10,588883.2432939032
671,0.0
708,2781517.078637961
2,1, 7,21, 0, 7,30.00,40.00,SummerDesignDay
8,13.26651590856478
10,588883.2432939032
671,0.0
708,3047547.5108666515
2,1, 7,21, 0, 7,40.00,50.00,SummerDesignDay
8,13.302385595483825
10,588883.2432939032
671,0.0
708,2370887.4422001286
2,1, 7,21, 0, 7,50.00,60.00,SummerDesignDay
8,13.338219376725212
10,588883.2432939032
671,0.0
708,2490798.345438206
2,1, 7,21, 0, 7, 0.00,60.00,SummerDesignDay
357,25.343827634787698
397,23.9135742541234
437,23.938412772139498
477,23.973124084768615
517,23.904030945584343
557,23.925994889797769
2,1, 7,21, 0, 8, 0.00,10.00,SummerDesignDay
8,13.425035848769888
10,1462359.638864261
671,0.0
708,2991698.433931322
2,1, 7,21, 0, 8,10.00,20.00,SummerDesignDay
8,13.511586902306613
10,1462359.638864261
671,0.0
708,3085471.0526200465
2,1, 7,21, 0, 8,20.00,30.00,SummerDesignDay
8,13.597873898051125
10,1462359.638864261
671,0.0
708,3165899.802883504
2,1, 7,21, 0, 8,30.00,40.00,SummerDesignDay
8,13.683894639060169
10,1462359.638864261
671,0.0
708,3246478.4295139985
2,1, 7,21, 0, 8,40.00,50.00,SummerDesignDay
8,13.769657212591238
10,1462359.638864261
671,0.0
708,3326830.783293691
2,1, 7,21, 0, 8,50.00,60.00,SummerDesignDay
8,13.855159377344306
10,1462359.638864261
671,0.0
708,3387522.3759119587
2,1, 7,21, 0, 8, 0.00,60.00,SummerDesignDay
357,25.706773243301087
397,23.999999999636868
437,23.999999999904515
477,24.000000000000005
517,23.999999999678836
557,23.99999999973811
2,1, 7,21, 0, 9, 0.00,10.00,SummerDesignDay
8,13.950414902218398
10,4786172.030522507
671,0.0
708,5484698.621805969
2,1, 7,21, 0, 9,10.00,20.00,SummerDesignDay
8,14.045348842507606
10,4786172.030522507
671,0.0
708,5802744.124900286
2,1, 7,21, 0, 9,20.00,30.00,SummerDesignDay
8,14.139961983695457
10,4786172.030522507
671,0.0
708,6047932.292856498
2,1, 7,21, 0, 9,30.00,40.00,SummerDesignDay
8,14.234260005634394
10,4786172.030522507
671,0.0
708,6269062.3852777029
2,1, 7,21, 0, 9,40.00,50.00,SummerDesignDay
8,14.328237377491238
10,4786172.030522507
671,0.0
708,6459658.757844729
2,1, 7,21, 0, 9,50.00,60.00,SummerDesignDay
8,14.42189931667045
10,4786172.030522507
671,0.0
708,6629145.663412645
2,1, 7,21, 0, 9, 0.00,60.00,SummerDesignDay
357,26.141483108139977
397,24.00000000000001
437,24.0
477,23.999999999999998
517,24.000000000000019
557,24.00000000000004
2,1, 7,21, 0,10, 0.00,10.00,SummerDesignDay
8,14.505431443523138
10,5384443.534337821
671,0.0
708,7263534.120817971
2,1, 7,21, 0,10,10.00,20.00,SummerDesignDay
8,14.588717042844964
10,5384443.534337821
671,0.0
708,7468798.462588897
2,1, 7,21, 0,10,20.00,30.00,SummerDesignDay
8,14.671753726890664
10,5384443.534337821
671,0.0
708,7653438.249468596
2,1, 7,21, 0,10,30.00,40.00,SummerDesignDay
8,14.7545517121811
10,5384443.534337821
671,0.0
708,7824772.824603578
2,1, 7,21, 0,10,40.00,50.00,SummerDesignDay
8,14.837094087677479
10,5384443.534337821
671,0.0
708,7980529.864553342
2,1, 7,21, 0,10,50.00,60.00,SummerDesignDay
8,14.919390937256472
10,5384443.534337821
671,0.0
708,8124749.76496193
2,1, 7,21, 0,10, 0.00,60.00,SummerDesignDay
357,26.632358707344655
397,24.000000000000015
437,24.00000000000001
477,23.999999999999944
517,24.000000000000015
557,23.99999999999999
2,1, 7,21, 0,11, 0.00,10.00,SummerDesignDay
8,14.991798446011503
10,5384443.534337821
671,0.0
708,8235874.867716123
2,1, 7,21, 0,11,10.00,20.00,SummerDesignDay
8,15.064028962078729
10,5384443.534337821
671,0.0
708,8329930.256716051
2,1, 7,21, 0,11,20.00,30.00,SummerDesignDay
8,15.136061641544572
10,5384443.534337821
671,0.0
708,8413090.14111142
2,1, 7,21, 0,11,30.00,40.00,SummerDesignDay
8,15.207903246320186
10,5384443.534337821
671,0.0
708,8479790.797726499
2,1, 7,21, 0,11,40.00,50.00,SummerDesignDay
8,15.279570320736273
10,5384443.534337821
671,0.0
708,8545737.256386878
2,1, 7,21, 0,11,50.00,60.00,SummerDesignDay
8,15.351041933031768
10,5384443.534337821
671,0.0
708,8611691.077771632
2,1, 7,21, 0,11, 0.00,60.00,SummerDesignDay
357,27.129435920135977
397,24.00000000000003
437,24.000000000000047
477,24.000000000000058
517,24.000000000000015
557,24.00000000000003
2,1, 7,21, 0,12, 0.00,10.00,SummerDesignDay
8,15.398588405358219
10,5384443.534337821
671,0.0
708,8666288.469309099
2,1, 7,21, 0,12,10.00,20.00,SummerDesignDay
8,15.446052715183752
10,5384443.534337821
671,0.0
708,8724256.649826035
2,1, 7,21, 0,12,20.00,30.00,SummerDesignDay
8,15.49343477464616
10,5384443.534337821
671,0.0
708,8787022.311045954
2,1, 7,21, 0,12,30.00,40.00,SummerDesignDay
8,15.540735167416262
10,5384443.534337821
671,0.0
708,8855777.567528453
2,1, 7,21, 0,12,40.00,50.00,SummerDesignDay
8,15.5879540267837
10,5384443.534337821
671,0.0
708,8928829.543422524
2,1, 7,21, 0,12,50.00,60.00,SummerDesignDay
8,15.635083005635869
10,5384443.534337821
671,0.0
708,9008803.69900242
2,1, 7,21, 0,12, 0.00,60.00,SummerDesignDay
357,27.54374331482113
397,24.00000000000003
437,23.999999999999969
477,24.00000000000004
517,23.999999999999969
557,24.000000000000019
2,1, 7,21, 0,13, 0.00,10.00,SummerDesignDay
8,15.672742208436498
10,5384443.534337821
671,0.0
708,8726217.9877228
2,1, 7,21, 0,13,10.00,20.00,SummerDesignDay
8,15.710340969654615
10,5384443.534337821
671,0.0
708,8741517.161832529
2,1, 7,21, 0,13,20.00,30.00,SummerDesignDay
8,15.747888033095684
10,5384443.534337821
671,0.0
708,8743571.00177365
2,1, 7,21, 0,13,30.00,40.00,SummerDesignDay
8,15.785383551639163
10,5384443.534337821
671,0.0
708,8751967.075289276
2,1, 7,21, 0,13,40.00,50.00,SummerDesignDay
8,15.82282775038994
10,5384443.534337821
671,0.0
708,8772048.549064748
2,1, 7,21, 0,13,50.00,60.00,SummerDesignDay
8,15.860217017086074
10,5384443.534337821
671,0.0
708,8798944.908653126
2,1, 7,21, 0,13, 0.00,60.00,SummerDesignDay
357,27.850063999306575
397,23.999999999999955
437,24.000000000000005
477,24.000000000000019
517,24.00000000000007
557,24.000000000000019
2,1, 7,21, 0,14, 0.00,10.00,SummerDesignDay
8,15.883568075083165
10,5384443.534337821
671,0.0
708,8819022.62854771
2,1, 7,21, 0,14,10.00,20.00,SummerDesignDay
8,15.90689057388262
10,5384443.534337821
671,0.0
708,8835728.011853449
2,1, 7,21, 0,14,20.00,30.00,SummerDesignDay
8,15.930198537609293
10,5384443.534337821
671,0.0
708,8846779.246185484
2,1, 7,21, 0,14,30.00,40.00,SummerDesignDay
8,15.953480916421125
10,5384443.534337821
671,0.0
708,8853435.932598046
2,1, 7,21, 0,14,40.00,50.00,SummerDesignDay
8,15.976740305385036
10,5384443.534337821
671,0.0
708,8864411.904000054
2,1, 7,21, 0,14,50.00,60.00,SummerDesignDay
8,15.999991640458213
10,5384443.534337821
671,0.0
708,8883498.599831703
2,1, 7,21, 0,14, 0.00,60.00,SummerDesignDay
357,28.05838458536633
397,24.00000000000004
437,24.000000000000026
477,23.999999999999984
517,24.0
557,24.000000000000033
2,1, 7,21, 0,15, 0.00,10.00,SummerDesignDay
8,15.999991640458213
10,5384443.534337821
671,0.0
708,9241642.492449573
2,1, 7,21, 0,15,10.00,20.00,SummerDesignDay
8,15.999991640458213
10,5384443.534337821
671,0.0
708,9325692.204482146
2,1, 7,21, 0,15,20.00,30.00,SummerDesignDay
8,15.999991640458213
10,5384443.534337821
671,0.0
708,9426816.30530715
2,1, 7,21, 0,15,30.00,40.00,SummerDesignDay
8,15.999991640458213
10,5384443.534337821
671,0.0
708,9520845.094876733
2,1, 7,21, 0,15,40.00,50.00,SummerDesignDay
8,15.999991640458213
10,5384443.534337821
671,0.0
708,9599348.964215216
2,1, 7,21, 0,15,50.00,60.00,SummerDesignDay
8,15.999991640458213
10,5384443.534337821
671,0.0
708,9671203.311724933
2,1, 7,21, 0,15, 0.00,60.00,SummerDesignDay
357,28.15376868118625
397,24.0
437,24.00000000000003
477,24.0
517,24.00000000000004
557,23.999999999999944
2,1, 7,21, 0,16, 0.00,10.00,SummerDesignDay
8,15.97209710596138
10,5384443.534337821
671,0.0
708,9713606.688668821
2,1, 7,21, 0,16,10.00,20.00,SummerDesignDay
8,15.94416507597222
10,5384443.534337821
671,0.0
708,9743555.03914031
2,1, 7,21, 0,16,20.00,30.00,SummerDesignDay
8,15.916216239298901
10,5384443.534337821
671,0.0
708,9760783.355594201
2,1, 7,21, 0,16,30.00,40.00,SummerDesignDay
8,15.888235474065379
10,5384443.534337821
671,0.0
708,9754767.228866108
2,1, 7,21, 0,16,40.00,50.00,SummerDesignDay
8,15.860217017086074
10,5384443.534337821
671,0.0
708,9736121.44759137
2,1, 7,21, 0,16,50.00,60.00,SummerDesignDay
8,15.832181898598608
10,5384443.534337821
671,0.0
708,9710596.057541764
2,1, 7,21, 0,16, 0.00,60.00,SummerDesignDay
357,28.124713681827669
397,23.999999999999987
437,24.000000000000069
477,24.00000000000004
517,24.000000000000015
557,24.0
2,1, 7,21, 0,17, 0.00,10.00,SummerDesignDay
8,15.794750886687643
10,5384443.534337821
671,0.0
708,9674794.225509532
2,1, 7,21, 0,17,10.00,20.00,SummerDesignDay
8,15.757268190342203
10,5384443.534337821
671,0.0
708,9634840.980176753
2,1, 7,21, 0,17,20.00,30.00,SummerDesignDay
8,15.719725316285836
10,5384443.534337821
671,0.0
708,9593457.255871281
2,1, 7,21, 0,17,30.00,40.00,SummerDesignDay
8,15.682139513118879
10,5384443.534337821
671,0.0
708,9553435.167387559
2,1, 7,21, 0,17,40.00,50.00,SummerDesignDay
8,15.644501981724565
10,5384443.534337821
671,0.0
708,9516278.495865101
2,1, 7,21, 0,17,50.00,60.00,SummerDesignDay
8,15.60681551526909
10,5384443.534337821
671,0.0
708,9481845.979721163
2,1, 7,21, 0,17, 0.00,60.00,SummerDesignDay
357,27.968987520826194
397,23.999999999999984
437,24.0
477,24.000000000000044
517,23.999999999999984
557,24.000000000000033
2,1, 7,21, 0,18, 0.00,10.00,SummerDesignDay
8,15.559626200390355
10,5016276.455066859
671,0.0
708,9099776.493632557
2,1, 7,21, 0,18,10.00,20.00,SummerDesignDay
8,15.512358213037143
10,5016276.455066859
671,0.0
708,9011395.518517882
2,1, 7,21, 0,18,20.00,30.00,SummerDesignDay
8,15.465008577399173
10,5016276.455066859
671,0.0
708,8937626.629293995
2,1, 7,21, 0,18,30.00,40.00,SummerDesignDay
8,15.4175772553524
10,5016276.455066859
671,0.0
708,8872059.310239234
2,1, 7,21, 0,18,40.00,50.00,SummerDesignDay
8,15.370072588135076
10,5016276.455066859
671,0.0
708,8797893.94596221
2,1, 7,21, 0,18,50.00,60.00,SummerDesignDay
8,15.322476599465594
10,5016276.455066859
671,0.0
708,8732634.969352032
2,1, 7,21, 0,18, 0.00,60.00,SummerDesignDay
357,27.706426500491845
397,24.00000000000003
437,23.999999999999984
477,24.000000000000015
517,24.000000000000019
557,24.00000000000006
2,1, 7,21, 0,19, 0.00,10.00,SummerDesignDay
8,15.250921775365005
10,2991357.519076566
671,0.0
708,7242818.024403564
2,1, 7,21, 0,19,10.00,20.00,SummerDesignDay
8,15.179192271863182
10,2991357.519076566
671,0.0
708,7019163.624346087
2,1, 7,21, 0,19,20.00,30.00,SummerDesignDay
8,15.107272187816319
10,2991357.519076566
671,0.0
708,6850113.119386012
2,1, 7,21, 0,19,30.00,40.00,SummerDesignDay
8,15.035155268726266
10,2991357.519076566
671,0.0
708,6703894.590342884
2,1, 7,21, 0,19,40.00,50.00,SummerDesignDay
8,14.962861512336751
10,2991357.519076566
671,0.0
708,6580764.208944985
2,1, 7,21, 0,19,50.00,60.00,SummerDesignDay
8,14.89036566563724
10,2991357.519076566
671,0.0
708,6474719.14590381
2,1, 7,21, 0,19, 0.00,60.00,SummerDesignDay
357,27.345269603209855
397,24.000000000000026
437,24.0
477,24.0
517,24.00000000000006
557,24.000000000000147
2,1, 7,21, 0,20, 0.00,10.00,SummerDesignDay
8,14.837094087677479
10,1462359.638864261
671,0.0
708,5481819.534434386
2,1, 7,21, 0,20,10.00,20.00,SummerDesignDay
8,14.783710832879948
10,1462359.638864261
671,0.0
708,5301371.778291563
2,1, 7,21, 0,20,20.00,30.00,SummerDesignDay
8,14.730224355829785
10,1462359.638864261
671,0.0
708,5165866.206037315
2,1, 7,21, 0,20,30.00,40.00,SummerDesignDay
8,14.67663126043968
10,1462359.638864261
671,0.0
708,5045147.6416833479
2,1, 7,21, 0,20,40.00,50.00,SummerDesignDay
8,14.622937600302962
10,1462359.638864261
671,0.0
708,4935645.7112321429
2,1, 7,21, 0,20,50.00,60.00,SummerDesignDay
8,14.569149245335242
10,1462359.638864261
671,0.0
708,4821832.557776787
2,1, 7,21, 0,20, 0.00,60.00,SummerDesignDay
357,26.91572723673396
397,24.000000000000026
437,24.000000000000026
477,24.000000000000019
517,24.00000000000001
557,24.000000000000033
2,1, 7,21, 0,21, 0.00,10.00,SummerDesignDay
8,14.525056661573644
10,1462359.638864261
671,0.0
708,4718448.991241419
2,1, 7,21, 0,21,10.00,20.00,SummerDesignDay
8,14.480894028919226
10,1462359.638864261
671,0.0
708,4614914.213441871
2,1, 7,21, 0,21,20.00,30.00,SummerDesignDay
8,14.436661008245095
10,1462359.638864261
671,0.0
708,4505210.871187586
2,1, 7,21, 0,21,30.00,40.00,SummerDesignDay
8,14.392357879829524
10,1462359.638864261
671,0.0
708,4388322.9760772469
2,1, 7,21, 0,21,40.00,50.00,SummerDesignDay
8,14.347984248733969
10,1462359.638864261
671,0.0
708,4267409.497613964
2,1, 7,21, 0,21,50.00,60.00,SummerDesignDay
8,14.303539944103879
10,1462359.638864261
671,0.0
708,4119285.6404668886
2,1, 7,21, 0,21, 0.00,60.00,SummerDesignDay
357,26.500301534759698
397,24.000000000000019
437,24.00000000000003
477,23.99999999999999
517,23.999999999999987
557,24.000000000000026
2,1, 7,21, 0,22, 0.00,10.00,SummerDesignDay
8,14.259024398703542
10,717557.6374991046
671,0.0
708,0.0
2,1, 7,21, 0,22,10.00,20.00,SummerDesignDay
8,14.214438335520976
10,717557.6374991046
671,0.0
708,0.0
2,1, 7,21, 0,22,20.00,30.00,SummerDesignDay
8,14.169780586953257
10,717557.6374991046
671,0.0
708,0.0
2,1, 7,21, 0,22,30.00,40.00,SummerDesignDay
8,14.125051650264818
10,717557.6374991046
671,0.0
708,0.0
2,1, 7,21, 0,22,40.00,50.00,SummerDesignDay
8,14.080254642519318
10,717557.6374991046
671,0.0
708,0.0
2,1, 7,21, 0,22,50.00,60.00,SummerDesignDay
8,14.035382275244209
10,717557.6374991046
671,0.0
708,0.0
2,1, 7,21, 0,22, 0.00,60.00,SummerDesignDay
357,26.13960508580556
397,25.10007397139684
437,25.325982617151568
477,25.26020867105746
517,25.418176659466029
557,26.145462090299394
2,1, 7,21, 0,23, 0.00,10.00,SummerDesignDay
8,14.000420411419542
10,717557.6374991046
671,0.0
708,0.0
2,1, 7,21, 0,23,10.00,20.00,SummerDesignDay
8,13.96543122992755
10,717557.6374991046
671,0.0
708,0.0
2,1, 7,21, 0,23,20.00,30.00,SummerDesignDay
8,13.930394855257365
10,717557.6374991046
671,0.0
708,0.0
2,1, 7,21, 0,23,30.00,40.00,SummerDesignDay
8,13.89531462857108
10,717557.6374991046
671,0.0
708,0.0
2,1, 7,21, 0,23,40.00,50.00,SummerDesignDay
8,13.860181259005998
10,717557.6374991046
671,0.0
708,0.0
2,1, 7,21, 0,23,50.00,60.00,SummerDesignDay
8,13.8250169053543
10,717557.6374991046
671,0.0
708,0.0
2,1, 7,21, 0,23, 0.00,60.00,SummerDesignDay
357,25.774527126683638
397,25.474227027370519
437,25.68985957188302
477,25.58779766748287
517,25.559879696458667
557,26.34238977146636
2,1, 7,21, 0,24, 0.00,10.00,SummerDesignDay
8,13.789804839937608
10,588883.2432939032
671,0.0
708,0.0
2,1, 7,21, 0,24,10.00,20.00,SummerDesignDay
8,13.754548759541855
10,588883.2432939032
671,0.0
708,0.0
2,1, 7,21, 0,24,20.00,30.00,SummerDesignDay
8,13.71923908724926
10,588883.2432939032
671,0.0
708,0.0
2,1, 7,21, 0,24,30.00,40.00,SummerDesignDay
8,13.683894639060169
10,588883.2432939032
671,0.0
708,0.0
2,1, 7,21, 0,24,40.00,50.00,SummerDesignDay
8,13.64850914519465
10,588883.2432939032
671,0.0
708,0.0
2,1, 7,21, 0,24,50.00,60.00,SummerDesignDay
8,13.613075903216054
10,588883.2432939032
671,0.0
708,0.0
2,1, 7,21, 0,24, 0.00,60.00,SummerDesignDay
357,25.587498362732096
397,25.285978070503167
437,25.488887670842318
477,25.39758538343777
517,25.30155756914013
557,26.035275601284014
3,1, 7,21, 0,SummerDesignDay
358,35.40639825691452,32.002629289925959,15,60,38.65297847584014, 4,60
398,41.27811181677026,38.0969986507018,23,10,43.90977044078704,11,40
438,40.57914510180856,37.426696494215999,23,10,42.9269836150492,10,40
478,40.386094141445479,33.67802821124483, 6,60,43.00560828561418, 7, 3
518,40.89943915030447,37.296996044678618,22,20,43.32322608044062,11,30
558,40.16478991469332,35.30365260065846,22,20,43.20819323022601,11,10
4,1, 7
7,21.163624999999997,17.5,21, 5,60,25.4,21,14,60
1,YELLOWKNIFE AP ANN HTG 99.6% CONDNS DB,  62.46,-114.44,  -7.00, 205.70
2,1, 1,21, 0, 1, 0.00,10.00,WinterDesignDay
8,-40.50000009296249
10,588883.2432939032
671,12024555.47067895
708,0.0
2,1, 1,21, 0, 1,10.00,20.00,WinterDesignDay
8,-40.50000009296249
10,588883.2432939032
671,12086483.100751052
708,0.0
2,1, 1,21, 0, 1,20.00,30.00,WinterDesignDay
8,-40.50000009296249
10,588883.2432939032
671,12146330.38143102
708,0.0
2,1, 1,21, 0, 1,30.00,40.00,WinterDesignDay
8,-40.50000009296249
10,588883.2432939032
671,12204418.079351102
708,0.0
2,1, 1,21, 0, 1,40.00,50.00,WinterDesignDay
8,-40.50000009296249
10,588883.2432939032
671,12261003.240621185
708,0.0
2,1, 1,21, 0, 1,50.00,60.00,WinterDesignDay
8,-40.50000009296249
10,588883.2432939032
671,12316291.309761549
708,0.0
2,1, 1,21, 0, 1, 0.00,60.00,WinterDesignDay
357,11.479679482895819
397,18.0
437,17.99999999999999
477,17.999999999999969
517,17.999999999999998
557,17.999999999999984
2,1, 1,21, 0, 2, 0.00,10.00,WinterDesignDay
8,-40.50000009296249
10,588883.2432939032
671,12370446.108565426
708,0.0
2,1, 1,21, 0, 2,10.00,20.00,WinterDesignDay
8,-40.50000009296249
10,588883.2432939032
671,12423599.698568289
708,0.0
2,1, 1,21, 0, 2,20.00,30.00,WinterDesignDay
8,-40.50000009296249
10,588883.2432939032
671,12475854.29485373
708,0.0
2,1, 1,21, 0, 2,30.00,40.00,WinterDesignDay
8,-40.50000009296249
10,588883.2432939032
671,12527290.768875752
708,0.0
2,1, 1,21, 0, 2,40.00,50.00,WinterDesignDay
8,-40.50000009296249
10,588883.2432939032
671,12577974.282206292
708,0.0
2,1, 1,21, 0, 2,50.00,60.00,WinterDesignDay
8,-40.50000009296249
10,588883.2432939032
671,12627956.837394888
708,0.0
2,1, 1,21, 0, 2, 0.00,60.00,WinterDesignDay
357,11.258821251060347
397,17.999999999999998
437,17.99999999999997
477,18.00000000000003
517,17.999999999999976
557,18.000000000000019
2,1, 1,21, 0, 3, 0.00,10.00,WinterDesignDay
8,-40.50000009296249
10,588883.2432939032
671,12677277.343770717
708,0.0
2,1, 1,21, 0, 3,10.00,20.00,WinterDesignDay
8,-40.50000009296249
10,588883.2432939032
671,12725967.609894012
708,0.0
2,1, 1,21, 0, 3,20.00,30.00,WinterDesignDay
8,-40.50000009296249
10,588883.2432939032
671,12774052.685426545
708,0.0
2,1, 1,21, 0, 3,30.00,40.00,WinterDesignDay
8,-40.50000009296249
10,588883.2432939032
671,12821552.309401412
708,0.0
2,1, 1,21, 0, 3,40.00,50.00,WinterDesignDay
8,-40.50000009296249
10,588883.2432939032
671,12868482.065906179
708,0.0
2,1, 1,21, 0, 3,50.00,60.00,WinterDesignDay
8,-40.50000009296249
10,588883.2432939032
671,12914854.30452992
708,0.0
2,1, 1,21, 0, 3, 0.00,60.00,WinterDesignDay
357,11.052909928541965
397,18.000000000000005
437,18.000000000000019
477,18.000000000000015
517,18.0
557,18.000000000000019
2,1, 1,21, 0, 4, 0.00,10.00,WinterDesignDay
8,-40.50000009296249
10,588883.2432939032
671,12960679.394556178
708,0.0
2,1, 1,21, 0, 4,10.00,20.00,WinterDesignDay
8,-40.50000009296249
10,588883.2432939032
671,13005964.845424548
708,0.0
2,1, 1,21, 0, 4,20.00,30.00,WinterDesignDay
8,-40.50000009296249
10,588883.2432939032
671,13050716.886049346
708,0.0
2,1, 1,21, 0, 4,30.00,40.00,WinterDesignDay
8,-40.50000009296249
10,588883.2432939032
671,13094940.88666629
708,0.0
2,1, 1,21, 0, 4,40.00,50.00,WinterDesignDay
8,-40.50000009296249
10,588883.2432939032
671,13138641.39679789
708,0.0
2,1, 1,21, 0, 4,50.00,60.00,WinterDesignDay
8,-40.50000009296249
10,588883.2432939032
671,13181822.367269854
708,0.0
2,1, 1,21, 0, 4, 0.00,60.00,WinterDesignDay
357,10.862537510987819
397,17.999999999999994
437,17.999999999999998
477,17.999999999999998
517,18.000000000000019
557,18.000000000000033
2,1, 1,21, 0, 5, 0.00,10.00,WinterDesignDay
8,-40.50000009296249
10,588883.2432939032
671,13224487.323612744
708,0.0
2,1, 1,21, 0, 5,10.00,20.00,WinterDesignDay
8,-40.50000009296249
10,588883.2432939032
671,13266639.50079953
708,0.0
2,1, 1,21, 0, 5,20.00,30.00,WinterDesignDay
8,-40.50000009296249
10,588883.2432939032
671,13308281.947228678
708,0.0
2,1, 1,21, 0, 5,30.00,40.00,WinterDesignDay
8,-40.50000009296249
10,588883.2432939032
671,13349378.548394753
708,0.0
2,1, 1,21, 0, 5,40.00,50.00,WinterDesignDay
8,-40.50000009296249
10,588883.2432939032
671,13390017.826504644
708,0.0
2,1, 1,21, 0, 5,50.00,60.00,WinterDesignDay
8,-40.50000009296249
10,588883.2432939032
671,13430118.472828042
708,0.0
2,1, 1,21, 0, 5, 0.00,60.00,WinterDesignDay
357,10.687378769553922
397,17.999999999999998
437,17.999999999999987
477,17.999999999999987
517,18.000000000000008
557,18.000000000000015
2,1, 1,21, 0, 6, 0.00,10.00,WinterDesignDay
8,-40.50000009296249
10,588883.2432939032
671,13469721.32594975
708,0.0
2,1, 1,21, 0, 6,10.00,20.00,WinterDesignDay
8,-40.50000009296249
10,588883.2432939032
671,13508836.40294327
708,0.0
2,1, 1,21, 0, 6,20.00,30.00,WinterDesignDay
8,-40.50000009296249
10,588883.2432939032
671,13547459.676427633
708,0.0
2,1, 1,21, 0, 6,30.00,40.00,WinterDesignDay
8,-40.50000009296249
10,588883.2432939032
671,13585593.916040415
708,0.0
2,1, 1,21, 0, 6,40.00,50.00,WinterDesignDay
8,-40.50000009296249
10,588883.2432939032
671,13623242.199963222
708,0.0
2,1, 1,21, 0, 6,50.00,60.00,WinterDesignDay
8,-40.50000009296249
10,588883.2432939032
671,13660407.924421758
708,0.0
2,1, 1,21, 0, 6, 0.00,60.00,WinterDesignDay
357,10.527225025047028
397,18.000000000000005
437,18.00000000000004
477,17.999999999999994
517,18.000000000000008
557,18.000000000000005
2,1, 1,21, 0, 7, 0.00,10.00,WinterDesignDay
8,-40.50000009296249
10,588883.2432939032
671,21601791.15582791
708,0.0
2,1, 1,21, 0, 7,10.00,20.00,WinterDesignDay
8,-40.50000009296249
10,588883.2432939032
671,14059941.528326998
708,0.0
2,1, 1,21, 0, 7,20.00,30.00,WinterDesignDay
8,-40.50000009296249
10,588883.2432939032
671,19408050.862451596
708,0.0
2,1, 1,21, 0, 7,30.00,40.00,WinterDesignDay
8,-40.50000009296249
10,588883.2432939032
671,17876477.271640436
708,0.0
2,1, 1,21, 0, 7,40.00,50.00,WinterDesignDay
8,-40.50000009296249
10,588883.2432939032
671,17729558.555624498
708,0.0
2,1, 1,21, 0, 7,50.00,60.00,WinterDesignDay
8,-40.50000009296249
10,588883.2432939032
671,17608101.139481985
708,0.0
2,1, 1,21, 0, 7, 0.00,60.00,WinterDesignDay
357,10.388372286524321
397,20.008526635627335
437,20.00253622686119
477,20.002051897066555
517,20.002997920202323
557,20.002000038177426
2,1, 1,21, 0, 8, 0.00,10.00,WinterDesignDay
8,-40.50000009296249
10,1462359.638864261
671,25532686.92629842
708,0.0
2,1, 1,21, 0, 8,10.00,20.00,WinterDesignDay
8,-40.50000009296249
10,1462359.638864261
671,17938299.790213854
708,0.0
2,1, 1,21, 0, 8,20.00,30.00,WinterDesignDay
8,-40.50000009296249
10,1462359.638864261
671,22802055.015106236
708,0.0
2,1, 1,21, 0, 8,30.00,40.00,WinterDesignDay
8,-40.50000009296249
10,1462359.638864261
671,21221272.61730503
708,0.0
2,1, 1,21, 0, 8,40.00,50.00,WinterDesignDay
8,-40.50000009296249
10,1462359.638864261
671,20929947.373852105
708,0.0
2,1, 1,21, 0, 8,50.00,60.00,WinterDesignDay
8,-40.50000009296249
10,1462359.638864261
671,20701867.98872121
708,0.0
2,1, 1,21, 0, 8, 0.00,60.00,WinterDesignDay
357,10.333141318493905
397,22.004127458693629
437,21.997685597949457
477,21.99698832514444
517,21.998163342055745
557,21.996933548923754
2,1, 1,21, 0, 9, 0.00,10.00,WinterDesignDay
8,-40.50000009296249
10,4786172.030522507
671,18439544.128953306
708,0.0
2,1, 1,21, 0, 9,10.00,20.00,WinterDesignDay
8,-40.50000009296249
10,4786172.030522507
671,18080526.970970688
708,0.0
2,1, 1,21, 0, 9,20.00,30.00,WinterDesignDay
8,-40.50000009296249