Program Version,EnergyPlus, Version 8.9.0-eba93e8e1b, YMD=2018.11.01 15:44
1,5,Environment Title[],Latitude[deg],Longitude[deg],Time Zone[],Elevation[m]
2,8,Day of Simulation[],Month[],Day of Month[],DST Indicator[1=yes 0=no],Hour[],StartMinute[],EndMinute[],DayType
3,5,Cumulative Day of Simulation[],Month[],Day of Month[],DST Indicator[1=yes 0=no],DayType  ! When Daily Report Variables Requested
4,2,Cumulative Days of Simulation[],Month[]  ! When Monthly Report Variables Requested
5,1,Cumulative Days of Simulation[] ! When Run Period Report Variables Requested
6,1,Calendar Year of Simulation[] ! When Annual Report Variables Requested
7,9,Environment,Site Outdoor Air Drybulb Temperature [C] !Monthly [Value,Min,Day,Hour,Minute,Max,Day,Hour,Minute]
8,1,Environment,Site Outdoor Air Wetbulb Temperature [C] !TimeStep
543,1,SP-ATTIC SYS-0 FLR-2 SCH-- UNDEFINED - HPLCMT-CORE ZN,Zone Air Temperature [C] !Hourly
544,7,SP-ATTIC SYS-0 FLR-2 SCH-- UNDEFINED - HPLCMT-CORE ZN,Zone Air Relative Humidity [%] !Daily [Value,Min,Hour,Minute,Max,Hour,Minute]
583,1,SP-CORE_ZN SYS-3 FLR-1 SCH-A HPLCMT-CORE ZN,Zone Air Temperature [C] !Hourly
584,7,SP-CORE_ZN SYS-3 FLR-1 SCH-A HPLCMT-CORE ZN,Zone Air Relative Humidity [%] !Daily [Value,Min,Hour,Minute,Max,Hour,Minute]
623,1,SP-PERIMETER_ZN_1 SYS-3 FLR-1 SCH-A HPLCMT-SOUTH ZN,Zone Air Temperature [C] !Hourly
624,7,SP-PERIMETER_ZN_1 SYS-3 FLR-1 SCH-A HPLCMT-SOUTH ZN,Zone Air Relative Humidity [%] !Daily [Value,Min,Hour,Minute,Max,Hour,Minute]
663,1,SP-PERIMETER_ZN_2 SYS-3 FLR-1 SCH-A HPLCMT-EAST ZN,Zone Air Temperature [C] !Hourly
664,7,SP-PERIMETER_ZN_2 SYS-3 FLR-1 SCH-A HPLCMT-EAST ZN,Zone Air Relative Humidity [%] !Daily [Value,Min,Hour,Minute,Max,Hour,Minute]
703,1,SP-PERIMETER_ZN_3 SYS-3 FLR-1 SCH-A HPLCMT-NORTH ZN,Zone Air Temperature [C] !Hourly
704,7,SP-PERIMETER_ZN_3 SYS-3 FLR-1 SCH-A HPLCMT-NORTH ZN,Zone Air Relative Humidity [%] !Daily [Value,Min,Hour,Minute,Max,Hour,Minute]
743,1,SP-PERIMETER_ZN_4 SYS-3 FLR-1 SCH-A HPLCMT-WEST ZN,Zone Air Temperature [C] !Hourly
744,7,SP-PERIMETER_ZN_4 SYS-3 FLR-1 SCH-A HPLCMT-WEST ZN,Zone Air Relative Humidity [%] !Daily [Value,Min,Hour,Minute,Max,Hour,Minute]
10,1,Electricity:Facility [J] !TimeStep
End of Data Dictionary
1,WHITEHORSE INTL AP ANN CLG .4% CONDNS DB=>MWB,  60.71,-135.07,  -8.00, 706.20
2,1, 7,21, 0, 1, 0.00,10.00,SummerDesignDay
8,10.574884373812747
10,927772.5957417581
2,1, 7,21, 0, 1,10.00,20.00,SummerDesignDay
8,10.528245252751797
10,927772.5957417581
2,1, 7,21, 0, 1,20.00,30.00,SummerDesignDay
8,10.481526817557933
10,927772.5957417581
2,1, 7,21, 0, 1,30.00,40.00,SummerDesignDay
8,10.43474672761587
10,927772.5957417581
2,1, 7,21, 0, 1,40.00,50.00,SummerDesignDay
8,10.387884178660615
10,1354242.3104289955
2,1, 7,21, 0, 1,50.00,60.00,SummerDesignDay
8,10.340945439918965
10,927772.5957417581
2,1, 7,21, 0, 1, 0.00,60.00,SummerDesignDay
543,24.6768501792907
583,24.321636633703255
623,24.608310362357988
663,24.61331909885082
703,24.29265013010053
743,25.291816813242776
2,1, 7,21, 0, 2, 0.00,10.00,SummerDesignDay
8,10.309610812103998
10,927772.5957417581
2,1, 7,21, 0, 2,10.00,20.00,SummerDesignDay
8,10.278242517360706
10,927772.5957417581
2,1, 7,21, 0, 2,20.00,30.00,SummerDesignDay
8,10.246840178286885
10,1358301.8078580716
2,1, 7,21, 0, 2,30.00,40.00,SummerDesignDay
8,10.215403920831856
10,927772.5957417581
2,1, 7,21, 0, 2,40.00,50.00,SummerDesignDay
8,10.183930399115332
10,927772.5957417581
2,1, 7,21, 0, 2,50.00,60.00,SummerDesignDay
8,10.152425746609186
10,927772.5957417581
2,1, 7,21, 0, 2, 0.00,60.00,SummerDesignDay
543,24.46320668701416
583,24.101776870889496
623,24.32805846893058
663,24.346943685019445
703,24.03160057133866
743,24.968623166504455
2,1, 7,21, 0, 3, 0.00,10.00,SummerDesignDay
8,10.128776674788054
10,1218418.7134264396
2,1, 7,21, 0, 3,10.00,20.00,SummerDesignDay
8,10.105105152561754
10,1067513.4823732754
2,1, 7,21, 0, 3,20.00,30.00,SummerDesignDay
8,10.081417734849238
10,927772.5957417581
2,1, 7,21, 0, 3,30.00,40.00,SummerDesignDay
8,10.057707612553946
10,927772.5957417581
2,1, 7,21, 0, 3,40.00,50.00,SummerDesignDay
8,10.033981692635047
10,927772.5957417581
2,1, 7,21, 0, 3,50.00,60.00,SummerDesignDay
8,10.010232880593606
10,1355400.5665493413
2,1, 7,21, 0, 3, 0.00,60.00,SummerDesignDay
543,24.260773472986345
583,23.90890239355151
623,24.081012631079287
663,24.10813195151594
703,23.806565647635279
743,24.685009112429485
2,1, 7,21, 0, 4, 0.00,10.00,SummerDesignDay
8,9.986465162559983
10,927772.5957417581
2,1, 7,21, 0, 4,10.00,20.00,SummerDesignDay
8,9.962680941033236
10,927772.5957417581
2,1, 7,21, 0, 4,20.00,30.00,SummerDesignDay
8,9.938874376005396
10,927772.5957417581
2,1, 7,21, 0, 4,30.00,40.00,SummerDesignDay
8,9.915051561908128
10,1359246.1669488277
2,1, 7,21, 0, 4,40.00,50.00,SummerDesignDay
8,9.891205810354297
10,927772.5957417581
2,1, 7,21, 0, 4,50.00,60.00,SummerDesignDay
8,9.867344199745029
10,927772.5957417581
2,1, 7,21, 0, 4, 0.00,60.00,SummerDesignDay
543,24.063620735551955
583,23.72762723067027
623,23.85288559672308
663,23.884519974212379
703,23.597106290845276
743,24.42208937393654
2,1, 7,21, 0, 5, 0.00,10.00,SummerDesignDay
8,9.851424645587466
10,927772.5957417581
2,1, 7,21, 0, 5,10.00,20.00,SummerDesignDay
8,9.835492842713276
10,1082939.0169236947
2,1, 7,21, 0, 5,20.00,30.00,SummerDesignDay
8,9.819556028129357
10,1200239.5501633646
2,1, 7,21, 0, 5,30.00,40.00,SummerDesignDay
8,9.80361009819741
10,927772.5957417581
2,1, 7,21, 0, 5,40.00,50.00,SummerDesignDay
8,9.787655819020637
10,927772.5957417581
2,1, 7,21, 0, 5,50.00,60.00,SummerDesignDay
8,9.77169266473284
10,927772.5957417581
2,1, 7,21, 0, 5, 0.00,60.00,SummerDesignDay
543,23.92984419173958
583,23.565261908088848
623,23.65525484224366
663,23.83238509072632
703,23.54380744232708
743,24.190036125075893
2,1, 7,21, 0, 6, 0.00,10.00,SummerDesignDay
8,9.787655819020637
10,1363451.8968052387
2,1, 7,21, 0, 6,10.00,20.00,SummerDesignDay
8,9.80361009819741
10,935263.066813545
2,1, 7,21, 0, 6,20.00,30.00,SummerDesignDay
8,9.819556028129357
10,936736.2631971302
2,1, 7,21, 0, 6,30.00,40.00,SummerDesignDay
8,9.835492842713276
10,938221.6187940717
2,1, 7,21, 0, 6,40.00,50.00,SummerDesignDay
8,9.851424645587466
10,1371645.267700177
2,1, 7,21, 0, 6,50.00,60.00,SummerDesignDay
8,9.867344199745029
10,940192.4975802217
2,1, 7,21, 0, 6, 0.00,60.00,SummerDesignDay
543,24.027492840373296
583,23.555700482378158
623,23.608781824495805
663,24.657597238642713
703,23.965999527923754
743,24.116999897552188
2,1, 7,21, 0, 7, 0.00,10.00,SummerDesignDay
8,9.922993402171457
10,1263267.0892122612
2,1, 7,21, 0, 7,10.00,20.00,SummerDesignDay
8,9.978540284213477
10,1028473.1765749432
2,1, 7,21, 0, 7,20.00,30.00,SummerDesignDay
8,10.033981692635047
10,1202448.0241443148
2,1, 7,21, 0, 7,30.00,40.00,SummerDesignDay
8,10.089314673383278
10,1578893.4694760147
2,1, 7,21, 0, 7,40.00,50.00,SummerDesignDay
8,10.144545943774915
10,1181152.2513955476
2,1, 7,21, 0, 7,50.00,60.00,SummerDesignDay
8,10.199672942686155
10,1197576.1649159156
2,1, 7,21, 0, 7, 0.00,60.00,SummerDesignDay
543,24.253130543860967
583,23.656134049537184
623,23.749044668796228
663,24.006389913828455
703,23.998309248764785
743,24.000268699556967
2,1, 7,21, 0, 8, 0.00,10.00,SummerDesignDay
8,10.333113532252485
10,2528263.3185116627
2,1, 7,21, 0, 8,10.00,20.00,SummerDesignDay
8,10.465946348121124
10,2309066.4184469946
2,1, 7,21, 0, 8,20.00,30.00,SummerDesignDay
8,10.598165962627448
10,2288490.485093699
2,1, 7,21, 0, 8,30.00,40.00,SummerDesignDay
8,10.729796573137922
10,2764085.0807725216
2,1, 7,21, 0, 8,40.00,50.00,SummerDesignDay
8,10.860814646787793
10,2347694.546382971
2,1, 7,21, 0, 8,50.00,60.00,SummerDesignDay
8,10.991252164970467
10,2634867.9907404307
2,1, 7,21, 0, 8, 0.00,60.00,SummerDesignDay
543,24.65837664222681
583,23.962677661629035
623,23.98760543397127
663,23.999801803092315
703,24.000468369402339
743,24.0001093636331
2,1, 7,21, 0, 9, 0.00,10.00,SummerDesignDay
8,11.136328759361359
10,7029717.223601657
2,1, 7,21, 0, 9,10.00,20.00,SummerDesignDay
8,11.280673139948592
10,7199377.263430016
2,1, 7,21, 0, 9,20.00,30.00,SummerDesignDay
8,11.42429076444808
10,7258168.692280696
2,1, 7,21, 0, 9,30.00,40.00,SummerDesignDay
8,11.567187263625366
10,7314810.09180431
2,1, 7,21, 0, 9,40.00,50.00,SummerDesignDay
8,11.709358464730734
10,7368057.853352731
2,1, 7,21, 0, 9,50.00,60.00,SummerDesignDay
8,11.850829069928455
10,7513433.719792985
2,1, 7,21, 0, 9, 0.00,60.00,SummerDesignDay
543,25.21716197103915
583,23.99951247640617
623,23.999747902767198
663,23.999307481465978
703,23.9996466292079
743,23.999851004264675
2,1, 7,21, 0,10, 0.00,10.00,SummerDesignDay
8,11.97681682509147
10,8284917.557101599
2,1, 7,21, 0,10,10.00,20.00,SummerDesignDay
8,12.102231155065976
10,8341990.575047293
2,1, 7,21, 0,10,20.00,30.00,SummerDesignDay
8,12.227101480906173
10,8394885.280983136
2,1, 7,21, 0,10,30.00,40.00,SummerDesignDay
8,12.351405994665838
10,8447135.575823494
2,1, 7,21, 0,10,40.00,50.00,SummerDesignDay
8,12.47517410735183
10,8498852.06891935
2,1, 7,21, 0,10,50.00,60.00,SummerDesignDay
8,12.598387232803143
10,8549982.917403559
2,1, 7,21, 0,10, 0.00,60.00,SummerDesignDay
543,25.869470465774226
583,23.99893396090671
623,23.999403979749578
663,23.99877762326554
703,23.99922492371019
743,23.999563271039976
2,1, 7,21, 0,11, 0.00,10.00,SummerDesignDay
8,12.706657426061515
10,8844255.029728119
2,1, 7,21, 0,11,10.00,20.00,SummerDesignDay
8,12.814507896148893
10,9307219.324145996
2,1, 7,21, 0,11,20.00,30.00,SummerDesignDay
8,12.921941840825472
10,9352154.366084757
2,1, 7,21, 0,11,30.00,40.00,SummerDesignDay
8,13.028961355062379
10,9394041.978924765
2,1, 7,21, 0,11,40.00,50.00,SummerDesignDay
8,13.135568914109563
10,9434738.089669446
2,1, 7,21, 0,11,50.00,60.00,SummerDesignDay
8,13.241766875418112
10,9473272.621705907
2,1, 7,21, 0,11, 0.00,60.00,SummerDesignDay
543,26.52510644500499
583,23.99850485039354
623,23.998906663429965
663,23.998649828619475
703,23.99892265301757
743,23.999386480302609
2,1, 7,21, 0,12, 0.00,10.00,SummerDesignDay
8,13.312332120504351
10,9503411.520228865
2,1, 7,21, 0,12,10.00,20.00,SummerDesignDay
8,13.382729832286778
10,9532244.085441094
2,1, 7,21, 0,12,20.00,30.00,SummerDesignDay
8,13.452935435202303
10,9560527.32182833
2,1, 7,21, 0,12,30.00,40.00,SummerDesignDay
8,13.5229715171431
10,9176051.694814312
2,1, 7,21, 0,12,40.00,50.00,SummerDesignDay
8,13.592832639059534
10,9616704.968634984
2,1, 7,21, 0,12,50.00,60.00,SummerDesignDay
8,13.662504355632294
10,9645409.690623245
2,1, 7,21, 0,12, 0.00,60.00,SummerDesignDay
543,27.075106805926028
583,23.998097005034965
623,23.998296294813014
663,23.998836535927628
703,23.99866723420814
743,23.999225987480999
2,1, 7,21, 0,13, 0.00,10.00,SummerDesignDay
8,13.718119473806257
10,9578534.644539008
2,1, 7,21, 0,13,10.00,20.00,SummerDesignDay
8,13.773621872844645
10,9602320.640454045
2,1, 7,21, 0,13,20.00,30.00,SummerDesignDay
8,13.82902061341969
10,9627046.97242987
2,1, 7,21, 0,13,30.00,40.00,SummerDesignDay
8,13.884298924816953
10,9651494.100093147
2,1, 7,21, 0,13,40.00,50.00,SummerDesignDay
8,13.939465293793303
10,9675391.577457868
2,1, 7,21, 0,13,50.00,60.00,SummerDesignDay
8,13.994520536118431
10,9698481.263027616
2,1, 7,21, 0,13, 0.00,60.00,SummerDesignDay
543,27.498085916111849
583,23.99817045606565
623,23.99821025256264
663,23.999122001162815
703,23.998759159287308
743,23.99928087042008
2,1, 7,21, 0,14, 0.00,10.00,SummerDesignDay
8,14.028868933486186
10,9716423.930178725
2,1, 7,21, 0,14,10.00,20.00,SummerDesignDay
8,14.063177329374949
10,9319835.987952147
2,1, 7,21, 0,14,20.00,30.00,SummerDesignDay
8,14.09745163518578
10,9746855.807110157
2,1, 7,21, 0,14,30.00,40.00,SummerDesignDay
8,14.131674167392184
10,9757715.96998501
2,1, 7,21, 0,14,40.00,50.00,SummerDesignDay
8,14.165850004794942
10,9768709.931864849
2,1, 7,21, 0,14,50.00,60.00,SummerDesignDay
8,14.199995501199228
10,9778168.44256416
2,1, 7,21, 0,14, 0.00,60.00,SummerDesignDay
543,27.798691846368983
583,23.99821443049251
623,23.998306366895887
663,23.999164141579656
703,23.998798858154005
743,23.99930177648129
2,1, 7,21, 0,15, 0.00,10.00,SummerDesignDay
8,14.199995501199228
10,9876944.42273866
2,1, 7,21, 0,15,10.00,20.00,SummerDesignDay
8,14.199995501199228
10,9890845.770897137
2,1, 7,21, 0,15,20.00,30.00,SummerDesignDay
8,14.199995501199228
10,9906773.485502633
2,1, 7,21, 0,15,30.00,40.00,SummerDesignDay
8,14.199995501199228
10,9924200.986861349
2,1, 7,21, 0,15,40.00,50.00,SummerDesignDay
8,14.199995501199228
10,9942668.92276131
2,1, 7,21, 0,15,50.00,60.00,SummerDesignDay
8,14.199995501199228
10,9548873.179403564
2,1, 7,21, 0,15, 0.00,60.00,SummerDesignDay
543,27.960718553664724
583,23.997870284680759
623,23.998164887291244
663,23.99898245805426
703,23.998553211684937
743,23.999044459064537
2,1, 7,21, 0,16, 0.00,10.00,SummerDesignDay
8,14.159018930325284
10,9973478.615995963
2,1, 7,21, 0,16,10.00,20.00,SummerDesignDay
8,14.1179924524806
10,9982703.023553916
2,1, 7,21, 0,16,20.00,30.00,SummerDesignDay
8,14.076895523602007
10,9993251.845147253
2,1, 7,21, 0,16,30.00,40.00,SummerDesignDay
8,14.035732948334204
10,10003560.493159095
2,1, 7,21, 0,16,40.00,50.00,SummerDesignDay
8,13.994520536118431
10,10010539.605987248
2,1, 7,21, 0,16,50.00,60.00,SummerDesignDay
8,13.953233287653877
10,10011307.60384823
2,1, 7,21, 0,16, 0.00,60.00,SummerDesignDay
543,27.96863796235837
583,23.99756197180645
623,23.998228111325646
663,23.99887420833201
703,23.998346836536127
743,23.998414744475779
2,1, 7,21, 0,17, 0.00,10.00,SummerDesignDay
8,13.898094789050165
10,9489585.036818279
2,1, 7,21, 0,17,10.00,20.00,SummerDesignDay
8,13.842847829582155
10,9597584.861550857
2,1, 7,21, 0,17,20.00,30.00,SummerDesignDay
8,13.78748595150257
10,9818891.397224922
2,1, 7,21, 0,17,30.00,40.00,SummerDesignDay
8,13.732011652302317
10,9419511.21775626
2,1, 7,21, 0,17,40.00,50.00,SummerDesignDay
8,13.676424734795996
10,9399803.811582784
2,1, 7,21, 0,17,50.00,60.00,SummerDesignDay
8,13.620725130477572
10,9912021.247151798
2,1, 7,21, 0,17, 0.00,60.00,SummerDesignDay
543,27.822917262857805
583,23.99745996661811
623,23.99854454246515
663,23.998905670936549
703,23.9982841273911
743,23.99795054181172
2,1, 7,21, 0,18, 0.00,10.00,SummerDesignDay
8,13.550934723196902
10,8725534.726776673
2,1, 7,21, 0,18,10.00,20.00,SummerDesignDay
8,13.480979228325725
10,8656469.304727862
2,1, 7,21, 0,18,20.00,30.00,SummerDesignDay
8,13.410836111345063
10,8629198.166691384
2,1, 7,21, 0,18,30.00,40.00,SummerDesignDay
8,13.340510408508374
10,8603018.47057123
2,1, 7,21, 0,18,40.00,50.00,SummerDesignDay
8,13.270017148699207
10,8579577.230723864
2,1, 7,21, 0,18,50.00,60.00,SummerDesignDay
8,13.199334450651229
10,8558367.804312783
2,1, 7,21, 0,18, 0.00,60.00,SummerDesignDay
543,27.5387815428485
583,23.997832433331355
623,23.998941772186514
663,23.99912657364128
703,23.998545533413009
743,23.998192113141227
2,1, 7,21, 0,19, 0.00,10.00,SummerDesignDay
8,13.092969442790653
10,5776616.435739963
2,1, 7,21, 0,19,10.00,20.00,SummerDesignDay
8,12.986197380844527
10,5858788.786892371
2,1, 7,21, 0,19,20.00,30.00,SummerDesignDay
8,12.87901247660917
10,5808430.662964102
2,1, 7,21, 0,19,30.00,40.00,SummerDesignDay
8,12.771412022028456
10,5762067.991688111
2,1, 7,21, 0,19,40.00,50.00,SummerDesignDay
8,12.663393987044348
10,5699971.393840907
2,1, 7,21, 0,19,50.00,60.00,SummerDesignDay
8,12.554964632483584
10,5393997.054090022
2,1, 7,21, 0,19, 0.00,60.00,SummerDesignDay
543,27.113359621460004
583,23.99882274982046
623,23.999428652461736
663,23.999541696809769
703,23.99921236007354
743,23.998903411656277
2,1, 7,21, 0,20, 0.00,10.00,SummerDesignDay
8,12.47517410735183
10,3531586.6040436148
2,1, 7,21, 0,20,10.00,20.00,SummerDesignDay
8,12.395155061631434
10,3719660.0603566209
2,1, 7,21, 0,20,20.00,30.00,SummerDesignDay
8,12.314906694738856
10,3419145.9528081177
2,1, 7,21, 0,20,30.00,40.00,SummerDesignDay
8,12.234427533603899
10,3382778.4277308864
2,1, 7,21, 0,20,40.00,50.00,SummerDesignDay
8,12.153713649496125
10,3604246.9424464858
2,1, 7,21, 0,20,50.00,60.00,SummerDesignDay
8,12.072770732847382
10,3265124.3662199478
2,1, 7,21, 0,20, 0.00,60.00,SummerDesignDay
543,26.589834671161737
583,23.99943364048744
623,23.999734112325176
663,23.999797550434566
703,23.999609632046007
743,23.999468036208154
2,1, 7,21, 0,21, 0.00,10.00,SummerDesignDay
8,12.006377507130426
10,3330205.099523522
2,1, 7,21, 0,21,10.00,20.00,SummerDesignDay
8,11.939823746581173
10,3507120.7837051807
2,1, 7,21, 0,21,20.00,30.00,SummerDesignDay
8,11.873103146286102
10,3121091.390595294
2,1, 7,21, 0,21,30.00,40.00,SummerDesignDay
8,11.80623753609044
10,3274198.7518541689
2,1, 7,21, 0,21,40.00,50.00,SummerDesignDay
8,11.73921006237278
10,3400867.948243842
2,1, 7,21, 0,21,50.00,60.00,SummerDesignDay
8,11.672013384940366
10,2961667.0464495655
2,1, 7,21, 0,21, 0.00,60.00,SummerDesignDay
543,26.070353693244216
583,23.999617304534565
623,23.999833141714146
663,23.999869139688575
703,23.999684980155157
743,23.999718475790698
2,1, 7,21, 0,22, 0.00,10.00,SummerDesignDay
8,11.604670557236198
10,1506738.82368987
2,1, 7,21, 0,22,10.00,20.00,SummerDesignDay
8,11.537153992470785
10,1688522.4443102212
2,1, 7,21, 0,22,20.00,30.00,SummerDesignDay
8,11.469486539084178
10,1114076.30900614
2,1, 7,21, 0,22,30.00,40.00,SummerDesignDay
8,11.40166121489618
10,1573830.3171481058
2,1, 7,21, 0,22,40.00,50.00,SummerDesignDay
8,11.33366024844719
10,1573147.7348366536
2,1, 7,21, 0,22,50.00,60.00,SummerDesignDay
8,11.265510209805035
10,1056446.9899469596
2,1, 7,21, 0,22, 0.00,60.00,SummerDesignDay
543,25.623189760194106
583,24.74973729319443
623,24.989864826111558
663,24.95447740928112
703,25.088252878971564
743,26.028444382122499
2,1, 7,21, 0,23, 0.00,10.00,SummerDesignDay
8,11.212382727289285
10,1488112.7772982738
2,1, 7,21, 0,23,10.00,20.00,SummerDesignDay
8,11.159159924733532
10,1056446.9899469596
2,1, 7,21, 0,23,20.00,30.00,SummerDesignDay
8,11.105847507672504
10,1056446.9899469596
2,1, 7,21, 0,23,30.00,40.00,SummerDesignDay
8,11.05242589755245
10,1056446.9899469596
2,1, 7,21, 0,23,40.00,50.00,SummerDesignDay
8,10.998904557243503
10,1484251.3487761645
2,1, 7,21, 0,23,50.00,60.00,SummerDesignDay
8,10.945279185300978
10,1056446.9899469596
2,1, 7,21, 0,23, 0.00,60.00,SummerDesignDay
543,25.154210570890226
583,24.913608996687729
623,25.216663764922843
663,25.18485336602292
703,25.03500943993963
743,26.136326654234126
2,1, 7,21, 0,24, 0.00,10.00,SummerDesignDay
8,10.891557299913203
10,927772.5957417581
2,1, 7,21, 0,24,10.00,20.00,SummerDesignDay
8,10.837734778324489
10,927772.5957417581
2,1, 7,21, 0,24,20.00,30.00,SummerDesignDay
8,10.783821272645837
10,1359395.3863342864
2,1, 7,21, 0,24,30.00,40.00,SummerDesignDay
8,10.729796573137922
10,927772.5957417581
2,1, 7,21, 0,24,40.00,50.00,SummerDesignDay
8,10.675670448285729
10,927772.5957417581
2,1, 7,21, 0,24,50.00,60.00,SummerDesignDay
8,10.621438656817265
10,927772.5957417581
2,1, 7,21, 0,24, 0.00,60.00,SummerDesignDay
543,24.902115653544738
583,24.600355566879199
623,24.92675071900955
663,24.914773754908607
703,24.62417334784457
743,25.683675102833019
3,1, 7,21, 0,SummerDesignDay
544,28.053703000575024,24.67750250393298,16,10,31.407858525455567, 5,30
584,36.95844371447827,32.1654488980611, 8,20,44.36486921593001,17,10
624,35.12717419593419,31.811934003322553,23,40,39.63892167118929,17,10
664,34.86909286242492,29.795043145460615, 6,60,40.56645168879901,17,10
704,36.02836482372829,31.755417935293175, 6,60,42.366162192908507,17,10
744,34.19432249941417,28.346154179542073,22,30,40.404597669045767,15,60
4,1, 7
7,19.640374999999997,14.399999999999999,21, 5,60,25.7,21,14,60
1,WHITEHORSE INTL AP ANN HTG 99.6% CONDNS DB,  60.71,-135.07,  -8.00, 706.20
2,1, 1,21, 0, 1, 0.00,10.00,WinterDesignDay
8,-39.7
10,12502819.75158837
2,1, 1,21, 0, 1,10.00,20.00,WinterDesignDay
8,-39.7
10,12563744.957621228
2,1, 1,21, 0, 1,20.00,30.00,WinterDesignDay
8,-39.7
10,12623018.981010942
2,1, 1,21, 0, 1,30.00,40.00,WinterDesignDay
8,-39.7
10,13088072.399697714
2,1, 1,21, 0, 1,40.00,50.00,WinterDesignDay
8,-39.7
10,12764330.148257886
2,1, 1,21, 0, 1,50.00,60.00,WinterDesignDay
8,-39.7
10,12790612.947631272
2,1, 1,21, 0, 1, 0.00,60.00,WinterDesignDay
543,11.768517813301195
583,18.00003323864745
623,18.0001310626891
663,18.000115632805064
703,18.000172557262688
743,18.00010831923886
2,1, 1,21, 0, 2, 0.00,10.00,WinterDesignDay
8,-39.7
10,12844079.019525592
2,1, 1,21, 0, 2,10.00,20.00,WinterDesignDay
8,-39.7
10,13274665.682580924
2,1, 1,21, 0, 2,20.00,30.00,WinterDesignDay
8,-39.7
10,13004853.307942681
2,1, 1,21, 0, 2,30.00,40.00,WinterDesignDay
8,-39.7
10,12998262.282958432
2,1, 1,21, 0, 2,40.00,50.00,WinterDesignDay
8,-39.7
10,13048160.970718533
2,1, 1,21, 0, 2,50.00,60.00,WinterDesignDay
8,-39.7
10,13451124.530690697
2,1, 1,21, 0, 2, 0.00,60.00,WinterDesignDay
543,11.548882471804795
583,18.000035927254499
623,18.000109626226295
663,18.000098068129188
703,18.00014021552067
743,18.0000924692208
2,1, 1,21, 0, 3, 0.00,10.00,WinterDesignDay
8,-39.7
10,13226562.0806745
2,1, 1,21, 0, 3,10.00,20.00,WinterDesignDay
8,-39.7
10,13193213.830854822
2,1, 1,21, 0, 3,20.00,30.00,WinterDesignDay
8,-39.7
10,13240417.912457183
2,1, 1,21, 0, 3,30.00,40.00,WinterDesignDay
8,-39.7
10,13620971.712654606
2,1, 1,21, 0, 3,40.00,50.00,WinterDesignDay
8,-39.7
10,13433223.571845497
2,1, 1,21, 0, 3,50.00,60.00,WinterDesignDay
8,-39.7
10,13378006.480325407
2,1, 1,21, 0, 3, 0.00,60.00,WinterDesignDay
543,11.344939696331354
583,18.0000354807212
623,18.000092580006418
663,18.000083728126304
703,18.000115797840285
743,18.00007938254956
2,1, 1,21, 0, 4, 0.00,10.00,WinterDesignDay
8,-39.7
10,13422859.572784072
2,1, 1,21, 0, 4,10.00,20.00,WinterDesignDay
8,-39.7
10,13785166.690381293
2,1, 1,21, 0, 4,20.00,30.00,WinterDesignDay
8,-39.7
10,13626742.674109457
2,1, 1,21, 0, 4,30.00,40.00,WinterDesignDay
8,-39.7
10,13553623.109111313
2,1, 1,21, 0, 4,40.00,50.00,WinterDesignDay
8,-39.7
10,13596280.289030966
2,1, 1,21, 0, 4,50.00,60.00,WinterDesignDay
8,-39.7
10,13943688.265622259
2,1, 1,21, 0, 4, 0.00,60.00,WinterDesignDay
543,11.157303178231109
583,18.00003418069992
623,18.000079325902278
663,18.000072316075696
703,18.000097823151206
743,18.000068852252914
2,1, 1,21, 0, 5, 0.00,10.00,WinterDesignDay
8,-39.7
10,13808221.541913627
2,1, 1,21, 0, 5,10.00,20.00,WinterDesignDay
8,-39.7
10,13720534.916251833
2,1, 1,21, 0, 5,20.00,30.00,WinterDesignDay
8,-39.7
10,13761043.516637337
2,1, 1,21, 0, 5,30.00,40.00,WinterDesignDay
8,-39.7
10,14096325.814408929
2,1, 1,21, 0, 5,40.00,50.00,WinterDesignDay
8,-39.7
10,13978640.937448405
2,1, 1,21, 0, 5,50.00,60.00,WinterDesignDay
8,-39.7
10,13879051.78879008
2,1, 1,21, 0, 5, 0.00,60.00,WinterDesignDay
543,10.985929788527637
583,18.000032938356126
623,18.000069158128047
663,18.000063357715349
703,18.000084813451655
743,18.000060492651924
2,1, 1,21, 0, 6, 0.00,10.00,WinterDesignDay
8,-39.7
10,13917502.927409612
2,1, 1,21, 0, 6,10.00,20.00,WinterDesignDay
8,-39.7
10,14242865.825946475
2,1, 1,21, 0, 6,20.00,30.00,WinterDesignDay
8,-39.7
10,14138758.786742282
2,1, 1,21, 0, 6,30.00,40.00,WinterDesignDay
8,-39.7
10,14029439.731495023
2,1, 1,21, 0, 6,40.00,50.00,WinterDesignDay
8,-39.7
10,14065898.200579388
2,1, 1,21, 0, 6,50.00,60.00,WinterDesignDay
8,-39.7
10,14383123.625164837
2,1, 1,21, 0, 6, 0.00,60.00,WinterDesignDay
543,10.827823891453939
583,18.000032096704879
623,18.000061445735914
663,18.000056399973059
703,18.000075545417425
743,18.00005392422402
2,1, 1,21, 0, 7, 0.00,10.00,WinterDesignDay
8,-39.7
10,19045079.26475959
2,1, 1,21, 0, 7,10.00,20.00,WinterDesignDay
8,-39.7
10,15373237.693775526
2,1, 1,21, 0, 7,20.00,30.00,WinterDesignDay
8,-39.7
10,19552911.98773708
2,1, 1,21, 0, 7,30.00,40.00,WinterDesignDay
8,-39.7
10,18683725.361128674
2,1, 1,21, 0, 7,40.00,50.00,WinterDesignDay
8,-39.7
10,18410388.688840938
2,1, 1,21, 0, 7,50.00,60.00,WinterDesignDay
8,-39.7
10,18103375.192118147
2,1, 1,21, 0, 7, 0.00,60.00,WinterDesignDay
543,10.691519861142803
583,19.972006079720374
623,19.995550852209666
663,19.99759943816689
703,19.983929400385603
743,19.996935701203289
2,1, 1,21, 0, 8, 0.00,10.00,WinterDesignDay
8,-39.7
10,23219486.849989285
2,1, 1,21, 0, 8,10.00,20.00,WinterDesignDay
8,-39.7
10,20601456.089616866
2,1, 1,21, 0, 8,20.00,30.00,WinterDesignDay
8,-39.7
10,23876907.643634499
2,1, 1,21, 0, 8,30.00,40.00,WinterDesignDay
8,-39.7
10,23161700.064422653
2,1, 1,21, 0, 8,40.00,50.00,WinterDesignDay
8,-39.7
10,22351860.581448705
2,1, 1,21, 0, 8,50.00,60.00,WinterDesignDay
8,-39.7
10,22590117.525108357
2,1, 1,21, 0, 8, 0.00,60.00,WinterDesignDay
543,10.639580004378536
583,21.9675106545654
623,21.989358933298705
663,21.994910928133114
703,21.978319778616585
743,21.995966735510135
2,1, 1,21, 0, 9, 0.00,10.00,WinterDesignDay
8,-39.7
10,24009006.122414054
2,1, 1,21, 0, 9,10.00,20.00,WinterDesignDay
8,-39.7
10,23617075.6058712
2,1, 1,21, 0, 9,20.00,30.00,WinterDesignDay
8,-39.7
10,23379394.73743194
2,1, 1,21, 0, 9,30.00,40.00,WinterDesignDay
8,-39.7
10,23183376.886995444
2,1, 1,21, 0, 9,40.00,50.00,WinterDesignDay
8,-39.7
10,23020574.17567236
2,1, 1,21, 0, 9,50.00,60.00,WinterDesignDay
8,-39.7
10,22880839.117763558
2,1, 1,21, 0, 9, 0.00,60.00,WinterDesignDay
543,10.731984932152779
583,22.0003479920375
623,22.000423143060617
663,22.000388381614866
703,22.000528755578917
743,22.00036904812333
2,1, 1,21, 0,10, 0.00,10.00,WinterDesignDay
8,-39.7
10,22964081.13892556
2,1, 1,21, 0,10,10.00,20.00,WinterDesignDay
8,-39.7
10,22914400.54249779
2,1, 1,21, 0,10,20.00,30.00,WinterDesignDay
8,-39.7
10,22798185.938212508
2,1, 1,21, 0,10,30.00,40.00,WinterDesignDay
8,-39.7
10,22694435.53533584
2,1, 1,21, 0,10,40.00,50.00,WinterDesignDay
8,-39.7
10,22547257.25456858
2,1, 1,21, 0,10,50.00,60.00,WinterDesignDay
8,-39.7
10,22351001.617833426
2,1, 1,21, 0,10, 0.00,60.00,WinterDesignDay
543,10.922324619585295
583,22.000537312385516
623,22.00065010095713
663,22.00058223785602
703,22.00086582143601
743,22.00054790007256
2,1, 1,21, 0,11, 0.00,10.00,WinterDesignDay
8,-39.7
10,22927284.95242834
2,1, 1,21, 0,11,10.00,20.00,WinterDesignDay
8,-39.7
10,22758078.515117699
2,1, 1,21, 0,11,20.00,30.00,WinterDesignDay
8,-39.7
10,22688424.679648304
2,1, 1,21, 0,11,30.00,40.00,WinterDesignDay
8,-39.7
10,22622588.271593624
2,1, 1,21, 0,11,40.00,50.00,WinterDesignDay
8,-39.7
10,22559339.586482824
2,1, 1,21, 0,11,50.00,60.00,WinterDesignDay
8,-39.7
10,22498114.447284957
2,1, 1,21, 0,11, 0.00,60.00,WinterDesignDay
543,11.131164016171013
583,22.000653033917844
623,22.000815915728749
663,22.000721069555309
703,22.00111891477502
743,22.00067447725843
2,1, 1,21, 0,12, 0.00,10.00,WinterDesignDay
8,-39.7
10,22438659.256870897
2,1, 1,21, 0,12,10.00,20.00,WinterDesignDay
8,-39.7
10,22380777.836192099
2,1, 1,21, 0,12,20.00,30.00,WinterDesignDay
8,-39.7
10,22324314.85011292
2,1, 1,21, 0,12,30.00,40.00,WinterDesignDay
8,-39.7
10,22269149.29829232
2,1, 1,21, 0,12,40.00,50.00,WinterDesignDay
8,-39.7
10,22215187.337916279
2,1, 1,21, 0,12,50.00,60.00,WinterDesignDay
8,-39.7
10,22162355.504033407
2,1, 1,21, 0,12, 0.00,60.00,WinterDesignDay
543,11.328426095381714
583,22.000743259272224
623,22.000954302092898
663,22.000835670145297
703,22.001336818961645
743,22.000778345267397
2,1, 1,21, 0,13, 0.00,10.00,WinterDesignDay
8,-39.7
10,22474035.251895466
2,1, 1,21, 0,13,10.00,20.00,WinterDesignDay
8,-39.7
10,22435462.725935274
2,1, 1,21, 0,13,20.00,30.00,WinterDesignDay
8,-39.7
10,22393126.28406877
2,1, 1,21, 0,13,30.00,40.00,WinterDesignDay
8,-39.7
10,22349998.411939295
2,1, 1,21, 0,13,40.00,50.00,WinterDesignDay
8,-39.7
10,22306667.682140605
2,1, 1,21, 0,13,50.00,60.00,WinterDesignDay
8,-39.7
10,22263397.63287013
2,1, 1,21, 0,13, 0.00,60.00,WinterDesignDay
543,11.506235025730982
583,22.000825823139225
623,22.000961457384667
663,22.00083005494459
703,22.001391979157789
743,22.000768455533593
2,1, 1,21, 0,14, 0.00,10.00,WinterDesignDay
8,-39.7
10,22220370.983516959
2,1, 1,21, 0,14,10.00,20.00,WinterDesignDay
8,-39.7
10,22177720.811750994
2,1, 1,21, 0,14,20.00,30.00,WinterDesignDay
8,-39.7
10,22135542.323496127
2,1, 1,21, 0,14,30.00,40.00,WinterDesignDay
8,-39.7
10,22093902.549826307
2,1, 1,21, 0,14,40.00,50.00,WinterDesignDay
8,-39.7
10,22052848.010400617
2,1, 1,21, 0,14,50.00,60.00,WinterDesignDay
8,-39.7
10,22012410.310951994
2,1, 1,21, 0,14, 0.00,60.00,WinterDesignDay
543,11.665338487382947
583,22.000763204460868
623,22.000937369444484
663,22.0008078912019
703,22.001358249771699
743,22.00074699541966
2,1, 1,21, 0,15, 0.00,10.00,WinterDesignDay
8,-39.7
10,21609453.452188679
2,1, 1,21, 0,15,10.00,20.00,WinterDesignDay
8,-39.7
10,21558275.415707314
2,1, 1,21, 0,15,20.00,30.00,WinterDesignDay
8,-39.7
10,21512465.627124348
2,1, 1,21, 0,15,30.00,40.00,WinterDesignDay
8,-39.7
10,21469031.351897867
2,1, 1,21, 0,15,40.00,50.00,WinterDesignDay
8,-39.7
10,21427367.286186756
2,1, 1,21, 0,15,50.00,60.00,WinterDesignDay
8,-39.7
10,21387184.99757504
2,1, 1,21, 0,15, 0.00,60.00,WinterDesignDay
543,11.808570047856142
583,22.00061970259983
623,22.000970030810977
663,22.0008436985591
703,22.001371347186976
743,22.000782437054715
2,1, 1,21, 0,16, 0.00,10.00,WinterDesignDay
8,-39.7
10,21348276.081415014
2,1, 1,21, 0,16,10.00,20.00,WinterDesignDay
8,-39.7
10,21310482.023021547
2,1, 1,21, 0,16,20.00,30.00,WinterDesignDay
8,-39.7
10,21273682.09702958
2,1, 1,21, 0,16,30.00,40.00,WinterDesignDay
8,-39.7
10,21237783.63223268
2,1, 1,21, 0,16,40.00,50.00,WinterDesignDay
8,-39.7
10,21202714.45122914
2,1, 1,21, 0,16,50.00,60.00,WinterDesignDay
8,-39.7
10,21168417.380295997
2,1, 1,21, 0,16, 0.00,60.00,WinterDesignDay
543,11.939713763684049
583,22.000588234284618
623,22.001009106040006
663,22.00087768217817
703,22.001424919472496
743,22.000813802071325
2,1, 1,21, 0,17, 0.00,10.00,WinterDesignDay
8,-39.7
10,21134846.371505687
2,1, 1,21, 0,17,10.00,20.00,WinterDesignDay
8,-39.7
10,21139071.529222467
2,1, 1,21, 0,17,20.00,30.00,WinterDesignDay
8,-39.7
10,21100906.88080053
2,1, 1,21, 0,17,30.00,40.00,WinterDesignDay
8,-39.7
10,21063605.13266266
2,1, 1,21, 0,17,40.00,50.00,WinterDesignDay
8,-39.7
10,20554942.446287674
2,1, 1,21, 0,17,50.00,60.00,WinterDesignDay
8,-39.7
10,20997989.18877978