Program Version,EnergyPlus, Version 8.9.0-497bb3e71c, YMD=2018.06.06 17:23
1,5,Environment Title[],Latitude[deg],Longitude[deg],Time Zone[],Elevation[m]
2,8,Day of Simulation[],Month[],Day of Month[],DST Indicator[1=yes 0=no],Hour[],StartMinute[],EndMinute[],DayType
3,5,Cumulative Day of Simulation[],Month[],Day of Month[],DST Indicator[1=yes 0=no],DayType  ! When Daily Report Variables Requested
4,2,Cumulative Days of Simulation[],Month[]  ! When Monthly Report Variables Requested
5,1,Cumulative Days of Simulation[] ! When Run Period Report Variables Requested
6,1,Calendar Year of Simulation[] ! When Annual Report Variables Requested
7,9,Environment,Site Outdoor Air Drybulb Temperature [C] !Monthly [Value,Min,Day,Hour,Minute,Max,Day,Hour,Minute]
8,1,Environment,Site Outdoor Air Wetbulb Temperature [C] !TimeStep
441,1,SP-ATTIC SYS-0 FLR-2 SCH-- UNDEFINED - HPLCMT-CORE ZN,Zone Air Temperature [C] !Hourly
442,7,SP-ATTIC SYS-0 FLR-2 SCH-- UNDEFINED - HPLCMT-CORE ZN,Zone Air Relative Humidity [%] !Daily [Value,Min,Hour,Minute,Max,Hour,Minute]
481,1,SP-DINING SYS-3 FLR-1 SCH-B HPLCMT-SOUTH ZN,Zone Air Temperature [C] !Hourly
482,7,SP-DINING SYS-3 FLR-1 SCH-B HPLCMT-SOUTH ZN,Zone Air Relative Humidity [%] !Daily [Value,Min,Hour,Minute,Max,Hour,Minute]
521,1,SP-KITCHEN SYS-3 FLR-1 SCH-B HPLCMT-NORTH ZN,Zone Air Temperature [C] !Hourly
522,7,SP-KITCHEN SYS-3 FLR-1 SCH-B HPLCMT-NORTH ZN,Zone Air Relative Humidity [%] !Daily [Value,Min,Hour,Minute,Max,Hour,Minute]
10,1,Electricity:Facility [J] !TimeStep
207,1,Gas:Facility [J] !TimeStep
End of Data Dictionary
1,VANCOUVER INTL AP ANN CLG .4% CONDNS DB=>MWB,  49.20,-123.18,  -8.00,   4.30
2,1, 7,21, 0, 1, 0.00,10.00,SummerDesignDay
8,16.352199953652215
10,4443605.064591392
207,12000.0
2,1, 7,21, 0, 1,10.00,20.00,SummerDesignDay
8,16.3252576442975
10,4427525.743700733
207,12000.0
2,1, 7,21, 0, 1,20.00,30.00,SummerDesignDay
8,16.2982938306074
10,4420427.3130082809
207,12000.0
2,1, 7,21, 0, 1,30.00,40.00,SummerDesignDay
8,16.271298954341999
10,4413113.135335741
207,8259000.230259779
2,1, 7,21, 0, 1,40.00,50.00,SummerDesignDay
8,16.244276700157607
10,4406591.532392432
207,12000.0
2,1, 7,21, 0, 1,50.00,60.00,SummerDesignDay
8,16.217228272321866
10,4399736.378593707
207,12000.0
2,1, 7,21, 0, 1, 0.00,60.00,SummerDesignDay
441,25.07283643904435
481,22.931871219530579
521,23.998570275745136
2,1, 7,21, 0, 2, 0.00,10.00,SummerDesignDay
8,16.199184445315237
10,2392066.7932300146
207,8196039.06222531
2,1, 7,21, 0, 2,10.00,20.00,SummerDesignDay
8,16.181123823551326
10,2392066.7932300146
207,12000.0
2,1, 7,21, 0, 2,20.00,30.00,SummerDesignDay
8,16.163056857826836
10,2392066.7932300146
207,12000.0
2,1, 7,21, 0, 2,30.00,40.00,SummerDesignDay
8,16.144971888810827
10,2392066.7932300146
207,12000.0
2,1, 7,21, 0, 2,40.00,50.00,SummerDesignDay
8,16.12688104636919
10,2392066.7932300146
207,8188853.685811914
2,1, 7,21, 0, 2,50.00,60.00,SummerDesignDay
8,16.108773026303486
10,2392066.7932300146
207,12000.0
2,1, 7,21, 0, 2, 0.00,60.00,SummerDesignDay
441,24.870759718501977
481,22.265440088926608
521,24.48406471845642
2,1, 7,21, 0, 3, 0.00,10.00,SummerDesignDay
8,16.095187997840726
10,753788.0811071204
207,12000.0
2,1, 7,21, 0, 3,10.00,20.00,SummerDesignDay
8,16.08159647937563
10,753788.0811071204
207,12000.0
2,1, 7,21, 0, 3,20.00,30.00,SummerDesignDay
8,16.067992103020477
10,753788.0811071204
207,12000.0
2,1, 7,21, 0, 3,30.00,40.00,SummerDesignDay
8,16.054387489767213
10,753788.0811071204
207,12000.0
2,1, 7,21, 0, 3,40.00,50.00,SummerDesignDay
8,16.040775235496488
10,753788.0811071204
207,12000.0
2,1, 7,21, 0, 3,50.00,60.00,SummerDesignDay
8,16.027151463515208
10,753788.0811071204
207,12000.0
2,1, 7,21, 0, 3, 0.00,60.00,SummerDesignDay
441,24.6612524044276
481,21.613132370823334
521,23.81584339764999
2,1, 7,21, 0, 4, 0.00,10.00,SummerDesignDay
8,16.013526309671386
10,753788.0811071204
207,12000.0
2,1, 7,21, 0, 4,10.00,20.00,SummerDesignDay
8,15.999888590638458
10,753788.0811071204
207,12000.0
2,1, 7,21, 0, 4,20.00,30.00,SummerDesignDay
8,15.986249958378048
10,753788.0811071204
207,12000.0
2,1, 7,21, 0, 4,30.00,40.00,SummerDesignDay
8,15.972604339068287
10,753788.0811071204
207,12000.0
2,1, 7,21, 0, 4,40.00,50.00,SummerDesignDay
8,15.958946698244901
10,753788.0811071204
207,12000.0
2,1, 7,21, 0, 4,50.00,60.00,SummerDesignDay
8,15.945287702730492
10,753788.0811071204
207,12000.0
2,1, 7,21, 0, 4, 0.00,60.00,SummerDesignDay
441,24.391372172481839
481,21.223150019587938
521,23.303162967331664
2,1, 7,21, 0, 5, 0.00,10.00,SummerDesignDay
8,15.936177990809899
10,753788.0811071204
207,12000.0
2,1, 7,21, 0, 5,10.00,20.00,SummerDesignDay
8,15.92705949178547
10,753788.0811071204
207,12000.0
2,1, 7,21, 0, 5,20.00,30.00,SummerDesignDay
8,15.917943710706878
10,753788.0811071204
207,12000.0
2,1, 7,21, 0, 5,30.00,40.00,SummerDesignDay
8,15.908825155859729
10,753788.0811071204
207,7871751.883571042
2,1, 7,21, 0, 5,40.00,50.00,SummerDesignDay
8,15.89970321878413
10,753788.0811071204
207,12000.0
2,1, 7,21, 0, 5,50.00,60.00,SummerDesignDay
8,15.89058503181825
10,753788.0811071204
207,12000.0
2,1, 7,21, 0, 5, 0.00,60.00,SummerDesignDay
441,24.14457527347459
481,20.997461780013649
521,23.046508764767155
2,1, 7,21, 0, 6, 0.00,10.00,SummerDesignDay
8,15.89970321878413
10,753788.0811071204
207,12000.0
2,1, 7,21, 0, 6,10.00,20.00,SummerDesignDay
8,15.908825155859729
10,753788.0811071204
207,12000.0
2,1, 7,21, 0, 6,20.00,30.00,SummerDesignDay
8,15.917943710706878
10,753788.0811071204
207,12000.0
2,1, 7,21, 0, 6,30.00,40.00,SummerDesignDay
8,15.92705949178547
10,753788.0811071204
207,12000.0
2,1, 7,21, 0, 6,40.00,50.00,SummerDesignDay
8,15.936177990809899
10,753788.0811071204
207,12000.0
2,1, 7,21, 0, 6,50.00,60.00,SummerDesignDay
8,15.945287702730492
10,753788.0811071204
207,12000.0
2,1, 7,21, 0, 6, 0.00,60.00,SummerDesignDay
441,24.30630648571606
481,21.216823174496729
521,22.895055600155435
2,1, 7,21, 0, 7, 0.00,10.00,SummerDesignDay
8,15.977153459569559
10,753788.0811071204
207,12000.0
2,1, 7,21, 0, 7,10.00,20.00,SummerDesignDay
8,16.00898303120887
10,753788.0811071204
207,12000.0
2,1, 7,21, 0, 7,20.00,30.00,SummerDesignDay
8,16.040775235496488
10,753788.0811071204
207,12000.0
2,1, 7,21, 0, 7,30.00,40.00,SummerDesignDay
8,16.072525945973774
10,753788.0811071204
207,12000.0
2,1, 7,21, 0, 7,40.00,50.00,SummerDesignDay
8,16.104245538982189
10,753788.0811071204
207,12000.0
2,1, 7,21, 0, 7,50.00,60.00,SummerDesignDay
8,16.135928228205914
10,753788.0811071204
207,12000.0
2,1, 7,21, 0, 7, 0.00,60.00,SummerDesignDay
441,24.659426598701925
481,21.66334686108874
521,22.89633154945652
2,1, 7,21, 0, 8, 0.00,10.00,SummerDesignDay
8,16.212718231329928
10,753788.0811071204
207,12000.0
2,1, 7,21, 0, 8,10.00,20.00,SummerDesignDay
8,16.289295095914626
10,753788.0811071204
207,12000.0
2,1, 7,21, 0, 8,20.00,30.00,SummerDesignDay
8,16.365658732225424
10,753788.0811071204
207,12000.0
2,1, 7,21, 0, 8,30.00,40.00,SummerDesignDay
8,16.44181049723187
10,753788.0811071204
207,12000.0
2,1, 7,21, 0, 8,40.00,50.00,SummerDesignDay
8,16.517756147764346
10,753788.0811071204
207,12000.0
2,1, 7,21, 0, 8,50.00,60.00,SummerDesignDay
8,16.593486849767513
10,753788.0811071204
207,12000.0
2,1, 7,21, 0, 8, 0.00,60.00,SummerDesignDay
441,25.2341320317399
481,22.273138314477114
521,23.090020708635668
2,1, 7,21, 0, 9, 0.00,10.00,SummerDesignDay
8,16.677878063199516
10,753788.0811071204
207,12000.0
2,1, 7,21, 0, 9,10.00,20.00,SummerDesignDay
8,16.76200946235728
10,753788.0811071204
207,12000.0
2,1, 7,21, 0, 9,20.00,30.00,SummerDesignDay
8,16.845887031033866
10,753788.0811071204
207,7863837.361361128
2,1, 7,21, 0, 9,30.00,40.00,SummerDesignDay
8,16.929502190751337
10,753788.0811071204
207,12000.0
2,1, 7,21, 0, 9,40.00,50.00,SummerDesignDay
8,17.012861351115086
10,753788.0811071204
207,12000.0
2,1, 7,21, 0, 9,50.00,60.00,SummerDesignDay
8,17.09597057951627
10,753788.0811071204
207,12000.0
2,1, 7,21, 0, 9, 0.00,60.00,SummerDesignDay
441,26.007371941528804
481,23.0763452287466
521,23.47998425670109
2,1, 7,21, 0,10, 0.00,10.00,SummerDesignDay
8,17.17011313897211
10,2415172.6275027066
207,12000.0
2,1, 7,21, 0,10,10.00,20.00,SummerDesignDay
8,17.24405314489198
10,2756664.9083980207
207,12000.0
2,1, 7,21, 0,10,20.00,30.00,SummerDesignDay
8,17.317792342150307
10,2989325.7220022778
207,8335513.418578603
2,1, 7,21, 0,10,30.00,40.00,SummerDesignDay
8,17.391330750865035
10,3043128.907593941
207,12000.0
2,1, 7,21, 0,10,40.00,50.00,SummerDesignDay
8,17.464669750704549
10,3196636.650146824
207,12000.0
2,1, 7,21, 0,10,50.00,60.00,SummerDesignDay
8,17.537810589481837
10,3320178.517737991
207,8335435.037558317
2,1, 7,21, 0,10, 0.00,60.00,SummerDesignDay
441,26.834834230100456
481,23.930578505837969
521,23.991136148410459
2,1, 7,21, 0,11, 0.00,10.00,SummerDesignDay
8,17.60218312883583
10,4460163.468950932
207,12000.0
2,1, 7,21, 0,11,10.00,20.00,SummerDesignDay
8,17.666401914182499
10,4571807.653242473
207,12000.0
2,1, 7,21, 0,11,20.00,30.00,SummerDesignDay
8,17.73046886665172
10,4664575.216067048
207,8335358.286648566
2,1, 7,21, 0,11,30.00,40.00,SummerDesignDay
8,17.794377337180749
10,4758859.1658671549
207,12000.0
2,1, 7,21, 0,11,40.00,50.00,SummerDesignDay
8,17.858140091722729
10,4848421.504940761
207,12000.0
2,1, 7,21, 0,11,50.00,60.00,SummerDesignDay
8,17.921751671476274
10,4934741.089963671
207,8335281.390048737
2,1, 7,21, 0,11, 0.00,60.00,SummerDesignDay
441,27.58740955951035
481,23.99888918769091
521,23.998997639764878
2,1, 7,21, 0,12, 0.00,10.00,SummerDesignDay
8,17.964074041059168
10,6130003.85163944
207,12000.0
2,1, 7,21, 0,12,10.00,20.00,SummerDesignDay
8,18.00633512830953
10,6154802.5154227609
207,12000.0
2,1, 7,21, 0,12,20.00,30.00,SummerDesignDay
8,18.048524057857607
10,6226456.808138549
207,12000.0
2,1, 7,21, 0,12,30.00,40.00,SummerDesignDay
8,18.090647246552004
10,6296981.520865399
207,8118663.404922427
2,1, 7,21, 0,12,40.00,50.00,SummerDesignDay
8,18.132703529720616
10,6367227.635419788
207,12000.0
2,1, 7,21, 0,12,50.00,60.00,SummerDesignDay
8,18.17469964536842
10,6438853.372745074
207,12000.0
2,1, 7,21, 0,12, 0.00,60.00,SummerDesignDay
441,28.192902072496567
481,23.99866482142429
521,23.998663254645959
2,1, 7,21, 0,13, 0.00,10.00,SummerDesignDay
8,18.208245339828517
10,6704984.795707957
207,12000.0
2,1, 7,21, 0,13,10.00,20.00,SummerDesignDay
8,18.241744233723979
10,6781776.305105566
207,12000.0
2,1, 7,21, 0,13,20.00,30.00,SummerDesignDay
8,18.2752069112248
10,6835919.634708865
207,8184718.978518725
2,1, 7,21, 0,13,30.00,40.00,SummerDesignDay
8,18.30862693969058
10,6891483.542783122
207,12000.0
2,1, 7,21, 0,13,40.00,50.00,SummerDesignDay
8,18.342005526737105
10,6942552.024174288
207,12000.0
2,1, 7,21, 0,13,50.00,60.00,SummerDesignDay
8,18.375341817792614
10,6990734.796161426
207,12000.0
2,1, 7,21, 0,13, 0.00,60.00,SummerDesignDay
441,28.62238090099017
481,23.998196998789124
521,23.998496519027929
2,1, 7,21, 0,14, 0.00,10.00,SummerDesignDay
8,18.39615811087369
10,6976588.000105379
207,8251636.067822512
2,1, 7,21, 0,14,10.00,20.00,SummerDesignDay
8,18.416957955881725
10,7034019.842398316
207,12000.0
2,1, 7,21, 0,14,20.00,30.00,SummerDesignDay
8,18.43773680274513
10,7074459.022315429
207,12000.0
2,1, 7,21, 0,14,30.00,40.00,SummerDesignDay
8,18.458504433044504
10,7116020.781461658
207,8261334.442089685
2,1, 7,21, 0,14,40.00,50.00,SummerDesignDay
8,18.479250383250578
10,7161821.050769179
207,12000.0
2,1, 7,21, 0,14,50.00,60.00,SummerDesignDay
8,18.499985692685468
10,7211626.19822324
207,12000.0
2,1, 7,21, 0,14, 0.00,60.00,SummerDesignDay
441,28.87791365755218
481,23.99786854760701
521,23.998293704588975
2,1, 7,21, 0,15, 0.00,10.00,SummerDesignDay
8,18.499985692685468
10,7092294.345987031
207,452927.2567444133
2,1, 7,21, 0,15,10.00,20.00,SummerDesignDay
8,18.499985692685468
10,7117804.492677806
207,7816891.517219844
2,1, 7,21, 0,15,20.00,30.00,SummerDesignDay
8,18.499985692685468
10,7152235.064608672
207,12000.0
2,1, 7,21, 0,15,30.00,40.00,SummerDesignDay
8,18.499985692685468
10,7181352.576995549
207,12000.0
2,1, 7,21, 0,15,40.00,50.00,SummerDesignDay
8,18.499985692685468
10,7207588.277108176
207,8260280.8622589469
2,1, 7,21, 0,15,50.00,60.00,SummerDesignDay
8,18.499985692685468
10,7234341.435900839
207,12000.0
2,1, 7,21, 0,15, 0.00,60.00,SummerDesignDay
441,28.946863542069605
481,23.998044833413436
521,23.99840632555336
2,1, 7,21, 0,16, 0.00,10.00,SummerDesignDay
8,18.475102970177127
10,7085990.185075183
207,12000.0
2,1, 7,21, 0,16,10.00,20.00,SummerDesignDay
8,18.450201543271235
10,7040658.8928852709
207,12000.0
2,1, 7,21, 0,16,20.00,30.00,SummerDesignDay
8,18.425271777286019
10,7031534.974768549
207,8116165.178888754
2,1, 7,21, 0,16,30.00,40.00,SummerDesignDay
8,18.40031825447926
10,7021843.906834958
207,12000.0
2,1, 7,21, 0,16,40.00,50.00,SummerDesignDay
8,18.375341817792614
10,7012376.273905311
207,12000.0
2,1, 7,21, 0,16,50.00,60.00,SummerDesignDay
8,18.350347174046595
10,7002346.647576482
207,12000.0
2,1, 7,21, 0,16, 0.00,60.00,SummerDesignDay
441,28.8122961655226
481,23.99863496297814
521,23.99878537405283
2,1, 7,21, 0,17, 0.00,10.00,SummerDesignDay
8,18.316978860635527
10,6981287.684349493
207,12000.0
2,1, 7,21, 0,17,10.00,20.00,SummerDesignDay
8,18.2835693630182
10,6940857.743751522
207,6969041.5842232429
2,1, 7,21, 0,17,20.00,30.00,SummerDesignDay
8,18.250118050746214
10,6916847.558589335
207,1089640.1357410677
2,1, 7,21, 0,17,30.00,40.00,SummerDesignDay
8,18.216624325548968
10,6893107.449655299
207,12000.0
2,1, 7,21, 0,17,40.00,50.00,SummerDesignDay
8,18.183088861944893
10,6864241.092314633
207,12000.0
2,1, 7,21, 0,17,50.00,60.00,SummerDesignDay
8,18.149510843493635
10,6832468.302805161
207,12000.0
2,1, 7,21, 0,17, 0.00,60.00,SummerDesignDay
441,28.471497622715835
481,23.999051789798075
521,23.99909582393487
2,1, 7,21, 0,18, 0.00,10.00,SummerDesignDay
8,18.10748062898272
10,6842435.60484482
207,12000.0
2,1, 7,21, 0,18,10.00,20.00,SummerDesignDay
8,18.065379091048376
10,6799382.256724154
207,12000.0
2,1, 7,21, 0,18,20.00,30.00,SummerDesignDay
8,18.023216461654344
10,6751529.970879785
207,8038105.396547478
2,1, 7,21, 0,18,30.00,40.00,SummerDesignDay
8,17.980987605947548
10,6701401.528653725
207,12000.0
2,1, 7,21, 0,18,40.00,50.00,SummerDesignDay
8,17.93869205826644
10,6645208.622008139
207,12000.0
2,1, 7,21, 0,18,50.00,60.00,SummerDesignDay
8,17.89632405402092
10,6583047.920993908
207,12000.0
2,1, 7,21, 0,18, 0.00,60.00,SummerDesignDay
441,27.949899339274038
481,23.99907860394629
521,23.999132409417965
2,1, 7,21, 0,19, 0.00,10.00,SummerDesignDay
8,17.832657261722244
10,6655570.8669566479
207,12000.0
2,1, 7,21, 0,19,10.00,20.00,SummerDesignDay
8,17.768833985856515
10,6584625.429412509
207,8118650.5318883419
2,1, 7,21, 0,19,20.00,30.00,SummerDesignDay
8,17.704859478274899
10,6485429.067184674
207,12000.0
2,1, 7,21, 0,19,30.00,40.00,SummerDesignDay
8,17.640731707059819
10,6382193.523930322
207,12000.0
2,1, 7,21, 0,19,40.00,50.00,SummerDesignDay
8,17.576451319157326
10,6267326.298430286
207,12000.0
2,1, 7,21, 0,19,50.00,60.00,SummerDesignDay
8,17.512016904905339
10,6143336.436978168
207,12000.0
2,1, 7,21, 0,19, 0.00,60.00,SummerDesignDay
441,27.276966841979094
481,23.998720848284404
521,23.99881672877703
2,1, 7,21, 0,20, 0.00,10.00,SummerDesignDay
8,17.464669750704549
10,6207495.67732522
207,8180653.603831749
2,1, 7,21, 0,20,10.00,20.00,SummerDesignDay
8,17.417239543286124
10,6117765.580357603
207,12000.0
2,1, 7,21, 0,20,20.00,30.00,SummerDesignDay
8,17.369720602565694
10,5996689.47580116
207,12000.0
2,1, 7,21, 0,20,30.00,40.00,SummerDesignDay
8,17.32212315858905
10,5859508.425061397
207,12000.0
2,1, 7,21, 0,20,40.00,50.00,SummerDesignDay
8,17.27444149556641
10,5729910.749613315
207,8187850.354785259
2,1, 7,21, 0,20,50.00,60.00,SummerDesignDay
8,17.22667133087272
10,5609996.251066627
207,12000.0
2,1, 7,21, 0,20, 0.00,60.00,SummerDesignDay
441,26.65753167088071
481,23.99829044147951
521,23.998295668815798
2,1, 7,21, 0,21, 0.00,10.00,SummerDesignDay
8,17.187526559563478
10,5504737.301775354
207,12000.0
2,1, 7,21, 0,21,10.00,20.00,SummerDesignDay
8,17.14832575016431
10,5489034.531330642
207,8412385.858147216
2,1, 7,21, 0,21,20.00,30.00,SummerDesignDay
8,17.109067882849585
10,5414313.93064367
207,12000.0
2,1, 7,21, 0,21,30.00,40.00,SummerDesignDay
8,17.06975316359479
10,5346744.887384943
207,12000.0
2,1, 7,21, 0,21,40.00,50.00,SummerDesignDay
8,17.030381184961106
10,5272617.984157339
207,8412123.81502263
2,1, 7,21, 0,21,50.00,60.00,SummerDesignDay
8,16.990952199245954
10,5203478.2985413749
207,12000.0
2,1, 7,21, 0,21, 0.00,60.00,SummerDesignDay
441,26.013417400496164
481,23.998032639901028
521,23.99792117302557
2,1, 7,21, 0,22, 0.00,10.00,SummerDesignDay
8,16.951466381705289
10,5133098.734772263
207,1201398.2443726259
2,1, 7,21, 0,22,10.00,20.00,SummerDesignDay
8,16.91191764298267
10,5057431.632627904
207,7221627.805890033
2,1, 7,21, 0,22,20.00,30.00,SummerDesignDay
8,16.872316270901277
10,4990286.691573933
207,12000.0
2,1, 7,21, 0,22,30.00,40.00,SummerDesignDay
8,16.832657583970926
10,4914103.44096757
207,8412333.544287863
2,1, 7,21, 0,22,40.00,50.00,SummerDesignDay
8,16.792940913271754
10,4838208.265123768
207,12000.0
2,1, 7,21, 0,22,50.00,60.00,SummerDesignDay
8,16.75316676384634
10,4766331.980380547
207,12000.0
2,1, 7,21, 0,22, 0.00,60.00,SummerDesignDay
441,25.679007584924425
481,23.997895254452815
521,23.99766194717542
2,1, 7,21, 0,23, 0.00,10.00,SummerDesignDay
8,16.722189413934204
10,4540994.095325727
207,8482751.436876586
2,1, 7,21, 0,23,10.00,20.00,SummerDesignDay
8,16.691177401191405
10,4538389.135436054
207,12000.0
2,1, 7,21, 0,23,20.00,30.00,SummerDesignDay
8,16.660129834097096
10,4532804.363259627
207,8490005.052806944
2,1, 7,21, 0,23,30.00,40.00,SummerDesignDay
8,16.62905234664031
10,4526982.553944018
207,12000.0
2,1, 7,21, 0,23,40.00,50.00,SummerDesignDay
8,16.597934345516849
10,4521904.8786152829
207,12000.0
2,1, 7,21, 0,23,50.00,60.00,SummerDesignDay
8,16.566780836645607
10,4515673.619933637
207,8490897.811070592
2,1, 7,21, 0,23, 0.00,60.00,SummerDesignDay
441,25.46518962502563
481,23.854284525050774
521,23.997901323331509
2,1, 7,21, 0,24, 0.00,10.00,SummerDesignDay
8,16.53559150074222
10,4492797.46055952
207,12000.0
2,1, 7,21, 0,24,10.00,20.00,SummerDesignDay
8,16.504366423325597
10,4485688.447856041
207,8490331.969673846
2,1, 7,21, 0,24,20.00,30.00,SummerDesignDay
8,16.473106420779854
10,4479242.493299324
207,12000.0
2,1, 7,21, 0,24,30.00,40.00,SummerDesignDay
8,16.44181049723187
10,4472724.839812288
207,8489770.047250748
2,1, 7,21, 0,24,40.00,50.00,SummerDesignDay
8,16.410483695355663
10,4465568.589872269
207,12000.0
2,1, 7,21, 0,24,50.00,60.00,SummerDesignDay
8,16.379116168301004
10,4459620.730555733
207,12000.0
2,1, 7,21, 0,24, 0.00,60.00,SummerDesignDay
441,25.271111568046579
481,23.39984025304378
521,23.998182361169169
3,1, 7,21, 0,SummerDesignDay
442,49.605817756575138,42.54507025179646,15,30,56.64315484914295, 5,50
482,60.727584992101267,54.297847209489258,17,60,68.76360689238503, 5,50
522,55.31368999986716,50.769966406315727,18,60,61.27387124721461, 7,10
4,1, 7
7,21.0245,17.5,21, 5,60,25.1,21,14,60
1,VANCOUVER INTL AP ANN HTG 99.6% CONDNS DB,  49.20,-123.18,  -8.00,   4.30
2,1,12,21, 0, 1, 0.00,10.00,WinterDesignDay
8,-6.1
10,4030345.5053529085
207,40800790.5090564
2,1,12,21, 0, 1,10.00,20.00,WinterDesignDay
8,-6.1
10,4030345.5053529085
207,40988072.330151978
2,1,12,21, 0, 1,20.00,30.00,WinterDesignDay
8,-6.1
10,4030345.5053529085
207,47444621.62620639
2,1,12,21, 0, 1,30.00,40.00,WinterDesignDay
8,-6.1
10,4030345.5053529085
207,42828263.71027175
2,1,12,21, 0, 1,40.00,50.00,WinterDesignDay
8,-6.1
10,4030345.5053529085
207,40963930.280165638
2,1,12,21, 0, 1,50.00,60.00,WinterDesignDay
8,-6.1
10,4030345.5053529085
207,43614896.978784468
2,1,12,21, 0, 1, 0.00,60.00,WinterDesignDay
441,15.43587404969395
481,22.00068107137039
521,22.00009559274672
2,1,12,21, 0, 2, 0.00,10.00,WinterDesignDay
8,-6.1
10,2392066.7932300146
207,47807817.9197278
2,1,12,21, 0, 2,10.00,20.00,WinterDesignDay
8,-6.1
10,2392066.7932300146
207,42362067.07262739
2,1,12,21, 0, 2,20.00,30.00,WinterDesignDay
8,-6.1
10,2392066.7932300146
207,42404901.5451043
2,1,12,21, 0, 2,30.00,40.00,WinterDesignDay
8,-6.1
10,2392066.7932300146
207,50658805.96232345
2,1,12,21, 0, 2,40.00,50.00,WinterDesignDay
8,-6.1
10,2392066.7932300146
207,42459995.558485258
2,1,12,21, 0, 2,50.00,60.00,WinterDesignDay
8,-6.1
10,2392066.7932300146
207,42469724.20307633
2,1,12,21, 0, 2, 0.00,60.00,WinterDesignDay
441,15.47011161304895
481,22.000649216721329
521,22.00035157681278
2,1,12,21, 0, 3, 0.00,10.00,WinterDesignDay
8,-6.1
10,753788.1926664639
207,26840040.416301207
2,1,12,21, 0, 3,10.00,20.00,WinterDesignDay
8,-6.1
10,753788.5831227306
207,29700094.15167633
2,1,12,21, 0, 3,20.00,30.00,WinterDesignDay
8,-6.1
10,753788.666789023
207,31512417.45847292
2,1,12,21, 0, 3,30.00,40.00,WinterDesignDay
8,-6.1
10,753788.0811071204
207,32229512.725290006
2,1,12,21, 0, 3,40.00,50.00,WinterDesignDay
8,-6.1
10,753788.0811071204
207,32823624.399854106
2,1,12,21, 0, 3,50.00,60.00,WinterDesignDay
8,-6.1
10,753788.0811071204
207,33188026.163408005
2,1,12,21, 0, 3, 0.00,60.00,WinterDesignDay
441,15.468780016627762
481,18.246769843023949
521,18.652518785379387
2,1,12,21, 0, 4, 0.00,10.00,WinterDesignDay
8,-6.1
10,753788.0811071204
207,41093646.09541042
2,1,12,21, 0, 4,10.00,20.00,WinterDesignDay
8,-6.1
10,753788.0811071204
207,33337688.57009469
2,1,12,21, 0, 4,20.00,30.00,WinterDesignDay
8,-6.1
10,753788.0811071204
207,33410767.95036679
2,1,12,21, 0, 4,30.00,40.00,WinterDesignDay
8,-6.1
10,753788.0811071204
207,33474565.301617035
2,1,12,21, 0, 4,40.00,50.00,WinterDesignDay
8,-6.1
10,753788.0811071204
207,33530427.017264468
2,1,12,21, 0, 4,50.00,60.00,WinterDesignDay
8,-6.1
10,753788.0811071204
207,33579963.73265024
2,1,12,21, 0, 4, 0.00,60.00,WinterDesignDay
441,15.347563480404423
481,18.000015742875005
521,17.999976818727665
2,1,12,21, 0, 5, 0.00,10.00,WinterDesignDay
8,-6.1
10,753788.0811071204
207,33624454.699394
2,1,12,21, 0, 5,10.00,20.00,WinterDesignDay
8,-6.1
10,753788.0811071204
207,33664795.8041187
2,1,12,21, 0, 5,20.00,30.00,WinterDesignDay
8,-6.1
10,753788.0811071204
207,33701526.31475546
2,1,12,21, 0, 5,30.00,40.00,WinterDesignDay
8,-6.1
10,753788.0811071204
207,33734622.22255752
2,1,12,21, 0, 5,40.00,50.00,WinterDesignDay
8,-6.1
10,753788.0811071204
207,33763376.993371669
2,1,12,21, 0, 5,50.00,60.00,WinterDesignDay
8,-6.1
10,753788.0811071204
207,33792859.86889484
2,1,12,21, 0, 5, 0.00,60.00,WinterDesignDay
441,15.146110367714267
481,18.00001378150163
521,17.99999565639566
2,1,12,21, 0, 6, 0.00,10.00,WinterDesignDay
8,-6.1
10,753788.0811071204
207,33821213.17563023
2,1,12,21, 0, 6,10.00,20.00,WinterDesignDay
8,-6.1
10,753788.0811071204
207,33848550.22191937
2,1,12,21, 0, 6,20.00,30.00,WinterDesignDay
8,-6.1
10,753788.0811071204
207,33874845.26383764
2,1,12,21, 0, 6,30.00,40.00,WinterDesignDay
8,-6.1
10,753788.0811071204
207,33899844.524985339
2,1,12,21, 0, 6,40.00,50.00,WinterDesignDay
8,-6.1
10,753788.0811071204
207,33924470.274971317
2,1,12,21, 0, 6,50.00,60.00,WinterDesignDay
8,-6.1
10,753788.0811071204
207,33948169.24537046
2,1,12,21, 0, 6, 0.00,60.00,WinterDesignDay
441,14.937575793289481
481,18.000015704114515
521,18.00000060059571
2,1,12,21, 0, 7, 0.00,10.00,WinterDesignDay
8,-6.1
10,753788.0811071204
207,33970353.127806659
2,1,12,21, 0, 7,10.00,20.00,WinterDesignDay
8,-6.1
10,753788.0811071204
207,33995346.944943208
2,1,12,21, 0, 7,20.00,30.00,WinterDesignDay
8,-6.1
10,753788.0811071204
207,34022650.14738451
2,1,12,21, 0, 7,30.00,40.00,WinterDesignDay
8,-6.1
10,753788.0811071204
207,34050351.354799959
2,1,12,21, 0, 7,40.00,50.00,WinterDesignDay
8,-6.1
10,753788.0811071204
207,41935161.42835343
2,1,12,21, 0, 7,50.00,60.00,WinterDesignDay
8,-6.1
10,753788.0811071204
207,34106782.01649429
2,1,12,21, 0, 7, 0.00,60.00,WinterDesignDay
441,14.73594750539417
481,18.00001695390121
521,18.000003118915577
2,1,12,21, 0, 8, 0.00,10.00,WinterDesignDay
8,-6.1
10,753788.0811071204
207,34135833.50548741
2,1,12,21, 0, 8,10.00,20.00,WinterDesignDay
8,-6.1
10,753788.0811071204
207,34165578.71540694
2,1,12,21, 0, 8,20.00,30.00,WinterDesignDay
8,-6.1
10,753788.0811071204
207,34195510.02344458
2,1,12,21, 0, 8,30.00,40.00,WinterDesignDay
8,-6.1
10,753788.0811071204
207,34225504.60163322
2,1,12,21, 0, 8,40.00,50.00,WinterDesignDay
8,-6.1
10,753788.0811071204
207,34255481.390153009
2,1,12,21, 0, 8,50.00,60.00,WinterDesignDay
8,-6.1
10,753788.0811071204
207,34285352.10354921
2,1,12,21, 0, 8, 0.00,60.00,WinterDesignDay
441,14.543205748754917
481,18.0000183992543
521,18.000005201935094
2,1,12,21, 0, 9, 0.00,10.00,WinterDesignDay
8,-6.1
10,758469.5729691356
207,43254846.52808935
2,1,12,21, 0, 9,10.00,20.00,WinterDesignDay
8,-6.1
10,753788.0811071204
207,35527327.726961787
2,1,12,21, 0, 9,20.00,30.00,WinterDesignDay
8,-6.1
10,753788.0811071204
207,41701004.9941741
2,1,12,21, 0, 9,30.00,40.00,WinterDesignDay
8,-6.1
10,753788.0811071204
207,40331410.63192992
2,1,12,21, 0, 9,40.00,50.00,WinterDesignDay
8,-6.1
10,753788.0811071204
207,40225837.70351657
2,1,12,21, 0, 9,50.00,60.00,WinterDesignDay
8,-6.1
10,753788.0811071204
207,40193663.950271818
2,1,12,21, 0, 9, 0.00,60.00,WinterDesignDay
441,14.371255104316438
481,19.994900952482145
521,19.973199732340338
2,1,12,21, 0,10, 0.00,10.00,WinterDesignDay
8,-6.1
10,2401429.7769540448
207,51793818.837662968
2,1,12,21, 0,10,10.00,20.00,WinterDesignDay
8,-6.1
10,2392066.7932300146
207,47843883.4030526
2,1,12,21, 0,10,20.00,30.00,WinterDesignDay
8,-6.1
10,2392066.7932300146
207,46472095.34112969
2,1,12,21, 0,10,30.00,40.00,WinterDesignDay
8,-6.1
10,2392066.7932300146
207,53623699.1649726
2,1,12,21, 0,10,40.00,50.00,WinterDesignDay
8,-6.1
10,2392066.7932300146
207,44982007.19125393
2,1,12,21, 0,10,50.00,60.00,WinterDesignDay
8,-6.1
10,2392066.7932300146
207,44852003.99993454
2,1,12,21, 0,10, 0.00,60.00,WinterDesignDay
441,14.261107620556923
481,21.984301510020996
521,21.967163137678186
2,1,12,21, 0,11, 0.00,10.00,WinterDesignDay
8,-6.1
10,3211206.149291461
207,52512479.94593862
2,1,12,21, 0,11,10.00,20.00,WinterDesignDay
8,-6.1
10,3211206.149291461
207,43992752.04655463
2,1,12,21, 0,11,20.00,30.00,WinterDesignDay
8,-6.1
10,3211206.149291461
207,43902188.20011816
2,1,12,21, 0,11,30.00,40.00,WinterDesignDay
8,-6.1
10,3211206.149291461
207,52223673.90217065
2,1,12,21, 0,11,40.00,50.00,WinterDesignDay
8,-6.1
10,3211206.149291461
207,43763590.24730677
2,1,12,21, 0,11,50.00,60.00,WinterDesignDay
8,-6.1
10,3211206.149291461
207,52101001.18976193
2,1,12,21, 0,11, 0.00,60.00,WinterDesignDay
441,14.27787620180044
481,22.000990361359155
521,22.000509504196687
2,1,12,21, 0,12, 0.00,10.00,WinterDesignDay
8,-6.1
10,4030345.5053529085
207,42639509.26542358
2,1,12,21, 0,12,10.00,20.00,WinterDesignDay
8,-6.1
10,4030345.5053529085
207,42719820.27972101
2,1,12,21, 0,12,20.00,30.00,WinterDesignDay
8,-6.1
10,4030345.5053529085
207,42649653.84562749
2,1,12,21, 0,12,30.00,40.00,WinterDesignDay
8,-6.1
10,4030345.5053529085
207,42590322.606827948
2,1,12,21, 0,12,40.00,50.00,WinterDesignDay
8,-6.1
10,4030345.5053529085
207,50670245.69021363
2,1,12,21, 0,12,50.00,60.00,WinterDesignDay
8,-6.1
10,4030345.5053529085
207,42478700.545026589
2,1,12,21, 0,12, 0.00,60.00,WinterDesignDay
441,14.376473926289764
481,22.000821011135998
521,22.000374159712125
2,1,12,21, 0,13, 0.00,10.00,WinterDesignDay
8,-6.1
10,4030345.5053529085
207,41648176.527775008
2,1,12,21, 0,13,10.00,20.00,WinterDesignDay
8,-6.1
10,4030345.5053529085
207,41520476.51240559
2,1,12,21, 0,13,20.00,30.00,WinterDesignDay
8,-6.1
10,4030345.5053529085
207,49687792.67505951
2,1,12,21, 0,13,30.00,40.00,WinterDesignDay
8,-6.1
10,4030345.5053529085
207,41414236.23200298
2,1,12,21, 0,13,40.00,50.00,WinterDesignDay
8,-6.1
10,4030345.5053529085
207,41370754.30753992
2,1,12,21, 0,13,50.00,60.00,WinterDesignDay
8,-6.1
10,4030345.5053529085
207,49553060.513375248
2,1,12,21, 0,13, 0.00,60.00,WinterDesignDay
441,14.497495980631698
481,22.000669947749729
521,22.00026313558664
2,1,12,21, 0,14, 0.00,10.00,WinterDesignDay
8,-6.1
10,4030345.5053529085
207,41487885.47541168
2,1,12,21, 0,14,10.00,20.00,WinterDesignDay
8,-6.1
10,4030345.5053529085
207,41379640.05243241
2,1,12,21, 0,14,20.00,30.00,WinterDesignDay
8,-6.1
10,4030345.5053529085
207,49653510.33646711
2,1,12,21, 0,14,30.00,40.00,WinterDesignDay
8,-6.1
10,4030345.5053529085
207,41318772.877274777
2,1,12,21, 0,14,40.00,50.00,WinterDesignDay
8,-6.1
10,4030345.5053529085
207,41273305.083132538
2,1,12,21, 0,14,50.00,60.00,WinterDesignDay
8,-6.1
10,4030345.5053529085
207,47693747.24920184
2,1,12,21, 0,14, 0.00,60.00,WinterDesignDay
441,14.621815175307987
481,22.00077007581528
521,22.000273363020275
2,1,12,21, 0,15, 0.00,10.00,WinterDesignDay
8,-6.1
10,4030345.5053529085
207,43655446.03810357
2,1,12,21, 0,15,10.00,20.00,WinterDesignDay
8,-6.1
10,4030345.5053529085
207,41773850.96699812
2,1,12,21, 0,15,20.00,30.00,WinterDesignDay
8,-6.1
10,4030345.5053529085
207,44400315.14776414
2,1,12,21, 0,15,30.00,40.00,WinterDesignDay
8,-6.1
10,4030345.5053529085
207,47389154.942215088
2,1,12,21, 0,15,40.00,50.00,WinterDesignDay
8,-6.1
10,4030345.5053529085
207,41696369.69620558
2,1,12,21, 0,15,50.00,60.00,WinterDesignDay
8,-6.1
10,4030345.5053529085
207,41673426.50115381
2,1,12,21, 0,15, 0.00,60.00,WinterDesignDay
441,14.737633776050578
481,22.000821892768099
521,22.00029602450148
2,1,12,21, 0,16, 0.00,10.00,WinterDesignDay
8,-6.1
10,4030345.5053529085
207,50387510.03699757
2,1,12,21, 0,16,10.00,20.00,WinterDesignDay
8,-6.1
10,4030345.5053529085
207,42350668.18180822
2,1,12,21, 0,16,20.00,30.00,WinterDesignDay
8,-6.1
10,4030345.5053529085
207,42332103.27772346
2,1,12,21, 0,16,30.00,40.00,WinterDesignDay
8,-6.1
10,4030345.5053529085
207,42314618.14615228
2,1,12,21, 0,16,40.00,50.00,WinterDesignDay
8,-6.1
10,4030345.5053529085
207,50432684.740064989
2,1,12,21, 0,16,50.00,60.00,WinterDesignDay
8,-6.1
10,4030345.5053529085
207,42270463.89844534
2,1,12,21, 0,16, 0.00,60.00,WinterDesignDay
441,14.839161909369432
481,22.00070750675224
521,22.00027564113687