Program Version,EnergyPlus, Version 8.9.0-eba93e8e1b, YMD=2018.11.01 15:58
1,5,Environment Title[],Latitude[deg],Longitude[deg],Time Zone[],Elevation[m]
2,8,Day of Simulation[],Month[],Day of Month[],DST Indicator[1=yes 0=no],Hour[],StartMinute[],EndMinute[],DayType
3,5,Cumulative Day of Simulation[],Month[],Day of Month[],DST Indicator[1=yes 0=no],DayType  ! When Daily Report Variables Requested
4,2,Cumulative Days of Simulation[],Month[]  ! When Monthly Report Variables Requested
5,1,Cumulative Days of Simulation[] ! When Run Period Report Variables Requested
6,1,Calendar Year of Simulation[] ! When Annual Report Variables Requested
7,9,Environment,Site Outdoor Air Drybulb Temperature [C] !Monthly [Value,Min,Day,Hour,Minute,Max,Day,Hour,Minute]
8,1,Environment,Site Outdoor Air Wetbulb Temperature [C] !TimeStep
543,1,SP-ATTIC SYS-0 FLR-2 SCH-- UNDEFINED - HPLCMT-CORE ZN,Zone Air Temperature [C] !Hourly
544,7,SP-ATTIC SYS-0 FLR-2 SCH-- UNDEFINED - HPLCMT-CORE ZN,Zone Air Relative Humidity [%] !Daily [Value,Min,Hour,Minute,Max,Hour,Minute]
583,1,SP-CORE_ZN SYS-3 FLR-1 SCH-A HPLCMT-CORE ZN,Zone Air Temperature [C] !Hourly
584,7,SP-CORE_ZN SYS-3 FLR-1 SCH-A HPLCMT-CORE ZN,Zone Air Relative Humidity [%] !Daily [Value,Min,Hour,Minute,Max,Hour,Minute]
623,1,SP-PERIMETER_ZN_1 SYS-3 FLR-1 SCH-A HPLCMT-SOUTH ZN,Zone Air Temperature [C] !Hourly
624,7,SP-PERIMETER_ZN_1 SYS-3 FLR-1 SCH-A HPLCMT-SOUTH ZN,Zone Air Relative Humidity [%] !Daily [Value,Min,Hour,Minute,Max,Hour,Minute]
663,1,SP-PERIMETER_ZN_2 SYS-3 FLR-1 SCH-A HPLCMT-EAST ZN,Zone Air Temperature [C] !Hourly
664,7,SP-PERIMETER_ZN_2 SYS-3 FLR-1 SCH-A HPLCMT-EAST ZN,Zone Air Relative Humidity [%] !Daily [Value,Min,Hour,Minute,Max,Hour,Minute]
703,1,SP-PERIMETER_ZN_3 SYS-3 FLR-1 SCH-A HPLCMT-NORTH ZN,Zone Air Temperature [C] !Hourly
704,7,SP-PERIMETER_ZN_3 SYS-3 FLR-1 SCH-A HPLCMT-NORTH ZN,Zone Air Relative Humidity [%] !Daily [Value,Min,Hour,Minute,Max,Hour,Minute]
743,1,SP-PERIMETER_ZN_4 SYS-3 FLR-1 SCH-A HPLCMT-WEST ZN,Zone Air Temperature [C] !Hourly
744,7,SP-PERIMETER_ZN_4 SYS-3 FLR-1 SCH-A HPLCMT-WEST ZN,Zone Air Relative Humidity [%] !Daily [Value,Min,Hour,Minute,Max,Hour,Minute]
10,1,Electricity:Facility [J] !TimeStep
End of Data Dictionary
1,YELLOWKNIFE AP ANN CLG .4% CONDNS DB=>MWB,  62.46,-114.44,  -7.00, 205.70
2,1, 7,21, 0, 1, 0.00,10.00,SummerDesignDay
8,13.582660593207148
10,2101119.4469422979
2,1, 7,21, 0, 1,10.00,20.00,SummerDesignDay
8,13.552225261379507
10,2101119.4469422979
2,1, 7,21, 0, 1,20.00,30.00,SummerDesignDay
8,13.521753554065869
10,2101119.4469422979
2,1, 7,21, 0, 1,30.00,40.00,SummerDesignDay
8,13.491239669468463
10,2537180.249751139
2,1, 7,21, 0, 1,40.00,50.00,SummerDesignDay
8,13.460705579713864
10,2101119.4469422979
2,1, 7,21, 0, 1,50.00,60.00,SummerDesignDay
8,13.43013511777116
10,2101119.4469422979
2,1, 7,21, 0, 1, 0.00,60.00,SummerDesignDay
543,25.68404905770434
583,26.38523930992439
623,27.39642719574839
663,27.409305087726584
703,26.373304870403346
743,28.1007703867251
2,1, 7,21, 0, 2, 0.00,10.00,SummerDesignDay
8,13.40973245557951
10,2101119.4469422979
2,1, 7,21, 0, 2,10.00,20.00,SummerDesignDay
8,13.389321077939915
10,2537113.6725571078
2,1, 7,21, 0, 2,20.00,30.00,SummerDesignDay
8,13.368889185101893
10,2101119.4469422979
2,1, 7,21, 0, 2,30.00,40.00,SummerDesignDay
8,13.348439009156916
10,2101119.4469422979
2,1, 7,21, 0, 2,40.00,50.00,SummerDesignDay
8,13.327986740557398
10,2101119.4469422979
2,1, 7,21, 0, 2,50.00,60.00,SummerDesignDay
8,13.307507118241113
10,2537042.7192700265
2,1, 7,21, 0, 2, 0.00,60.00,SummerDesignDay
543,25.570725293106749
583,26.25483667720655
623,27.273123857398138
663,27.3045162926385
703,26.218756546028165
743,27.950960646073246
2,1, 7,21, 0, 3, 0.00,10.00,SummerDesignDay
8,13.292149527800867
10,2101119.4469422979
2,1, 7,21, 0, 3,10.00,20.00,SummerDesignDay
8,13.276774263645676
10,2101119.4469422979
2,1, 7,21, 0, 3,20.00,30.00,SummerDesignDay
8,13.26138714285808
10,2101119.4469422979
2,1, 7,21, 0, 3,30.00,40.00,SummerDesignDay
8,13.246004796135189
10,2536967.1393152649
2,1, 7,21, 0, 3,40.00,50.00,SummerDesignDay
8,13.230604418546636
10,2101119.4469422979
2,1, 7,21, 0, 3,50.00,60.00,SummerDesignDay
8,13.215192312230407
10,2101119.4469422979
2,1, 7,21, 0, 3, 0.00,60.00,SummerDesignDay
543,25.467653996708635
583,26.14241808265889
623,27.151971080326548
663,27.198458540839068
703,26.08637995303478
743,27.806271334184929
2,1, 7,21, 0, 4, 0.00,10.00,SummerDesignDay
8,13.199784844146088
10,2101119.4469422979
2,1, 7,21, 0, 4,10.00,20.00,SummerDesignDay
8,13.184359740235623
10,2536886.6737597046
2,1, 7,21, 0, 4,20.00,30.00,SummerDesignDay
8,13.16892247673821
10,2101119.4469422979
2,1, 7,21, 0, 4,30.00,40.00,SummerDesignDay
8,13.15348978290439
10,2101119.4469422979
2,1, 7,21, 0, 4,40.00,50.00,SummerDesignDay
8,13.138039361294093
10,2101119.4469422979
2,1, 7,21, 0, 4,50.00,60.00,SummerDesignDay
8,13.122577036503083
10,2536801.3846658274
2,1, 7,21, 0, 4, 0.00,60.00,SummerDesignDay
543,25.381043593416007
583,26.040146294371696
623,27.038268155595835
663,27.122395356298886
703,25.993898607238923
743,27.670839703283695
2,1, 7,21, 0, 5, 0.00,10.00,SummerDesignDay
8,13.112266222112464
10,2101119.4469422979
2,1, 7,21, 0, 5,10.00,20.00,SummerDesignDay
8,13.10196152097974
10,2101119.4469422979
2,1, 7,21, 0, 5,20.00,30.00,SummerDesignDay
8,13.091643434542388
10,2101119.4469422979
2,1, 7,21, 0, 5,30.00,40.00,SummerDesignDay
8,13.081321778392012
10,2536711.093200256
2,1, 7,21, 0, 5,40.00,50.00,SummerDesignDay
8,13.0709928118608
10,2106743.1238272467
2,1, 7,21, 0, 5,50.00,60.00,SummerDesignDay
8,13.060673055344955
10,2106233.6970231116
2,1, 7,21, 0, 5, 0.00,60.00,SummerDesignDay
543,25.432795062377747
583,26.00378377436861
623,26.982816825739609
663,27.483244639952905
703,26.298732633602595
743,27.608234002453555
2,1, 7,21, 0, 6, 0.00,10.00,SummerDesignDay
8,13.0709928118608
10,2106963.5092391779
2,1, 7,21, 0, 6,10.00,20.00,SummerDesignDay
8,13.081321778392012
10,2543457.7078301317
2,1, 7,21, 0, 6,20.00,30.00,SummerDesignDay
8,13.091643434542388
10,2108683.2363100775
2,1, 7,21, 0, 6,30.00,40.00,SummerDesignDay
8,13.10196152097974
10,2109269.5798872478
2,1, 7,21, 0, 6,40.00,50.00,SummerDesignDay
8,13.112266222112464
10,2109848.7669940178
2,1, 7,21, 0, 6,50.00,60.00,SummerDesignDay
8,13.122577036503083
10,2545765.9444642097
2,1, 7,21, 0, 6, 0.00,60.00,SummerDesignDay
543,25.60157073576478
583,26.12586605797334
623,27.05982061277742
663,28.40860557190629
703,26.688304728754134
743,27.663975668466859
2,1, 7,21, 0, 7, 0.00,10.00,SummerDesignDay
8,13.15862867833626
10,4246174.233002033
2,1, 7,21, 0, 7,10.00,20.00,SummerDesignDay
8,13.194644070480845
10,3982369.2572031987
2,1, 7,21, 0, 7,20.00,30.00,SummerDesignDay
8,13.230604418546636
10,3583626.830047174
2,1, 7,21, 0, 7,30.00,40.00,SummerDesignDay
8,13.26651590856478
10,3871490.8436447188
2,1, 7,21, 0, 7,40.00,50.00,SummerDesignDay
8,13.302385595483825
10,3367364.0509960695
2,1, 7,21, 0, 7,50.00,60.00,SummerDesignDay
8,13.338219376725212
10,3319152.531525351
2,1, 7,21, 0, 7, 0.00,60.00,SummerDesignDay
543,25.872061942564775
583,24.1196613447956
623,24.083217812425187
663,24.26183066659289
703,24.15050825437108
743,24.10029895780571
2,1, 7,21, 0, 8, 0.00,10.00,SummerDesignDay
8,13.425035848769888
10,4427939.470783579
2,1, 7,21, 0, 8,10.00,20.00,SummerDesignDay
8,13.511586902306613
10,4621566.374441314
2,1, 7,21, 0, 8,20.00,30.00,SummerDesignDay
8,13.597873898051125
10,4303915.097520379
2,1, 7,21, 0, 8,30.00,40.00,SummerDesignDay
8,13.683894639060169
10,4770320.918567665
2,1, 7,21, 0, 8,40.00,50.00,SummerDesignDay
8,13.769657212591238
10,4321094.165743172
2,1, 7,21, 0, 8,50.00,60.00,SummerDesignDay
8,13.855159377344306
10,4790280.022833044
2,1, 7,21, 0, 8, 0.00,60.00,SummerDesignDay
543,26.23214053473444
583,23.999868828544526
623,23.99993185622627
663,23.99983441227722
703,23.99987194318383
743,23.999940064888948
2,1, 7,21, 0, 9, 0.00,10.00,SummerDesignDay
8,13.950414902218398
10,8962057.399901612
2,1, 7,21, 0, 9,10.00,20.00,SummerDesignDay
8,14.045348842507606
10,9074365.955973288
2,1, 7,21, 0, 9,20.00,30.00,SummerDesignDay
8,14.139961983695457
10,9120050.934797192
2,1, 7,21, 0, 9,30.00,40.00,SummerDesignDay
8,14.234260005634394
10,9164000.126849087
2,1, 7,21, 0, 9,40.00,50.00,SummerDesignDay
8,14.328237377491238
10,9203735.934690794
2,1, 7,21, 0, 9,50.00,60.00,SummerDesignDay
8,14.42189931667045
10,9240632.018437624
2,1, 7,21, 0, 9, 0.00,60.00,SummerDesignDay
543,26.636014840746289
583,23.999373520091266
623,23.99960812310462
663,23.999371790278017
703,23.999408078491546
743,23.999665147216139
2,1, 7,21, 0,10, 0.00,10.00,SummerDesignDay
8,14.505431443523138
10,9989214.719980458
2,1, 7,21, 0,10,10.00,20.00,SummerDesignDay
8,14.588717042844964
10,10059747.072788056
2,1, 7,21, 0,10,20.00,30.00,SummerDesignDay
8,14.671753726890664
10,10208873.000993222
2,1, 7,21, 0,10,30.00,40.00,SummerDesignDay
8,14.7545517121811
10,10249716.17370782
2,1, 7,21, 0,10,40.00,50.00,SummerDesignDay
8,14.837094087677479
10,10288519.074265438
2,1, 7,21, 0,10,50.00,60.00,SummerDesignDay
8,14.919390937256472
10,10324778.54624497
2,1, 7,21, 0,10, 0.00,60.00,SummerDesignDay
543,27.08900894567323
583,23.99870069958366
623,23.99913013604929
663,23.998829773937886
703,23.998799645267778
743,23.99937181561778
2,1, 7,21, 0,11, 0.00,10.00,SummerDesignDay
8,14.991798446011503
10,10589243.421774829
2,1, 7,21, 0,11,10.00,20.00,SummerDesignDay
8,15.064028962078729
10,10949417.07213306
2,1, 7,21, 0,11,20.00,30.00,SummerDesignDay
8,15.136061641544572
10,10973511.638665105
2,1, 7,21, 0,11,30.00,40.00,SummerDesignDay
8,15.207903246320186
10,10996917.239592884
2,1, 7,21, 0,11,40.00,50.00,SummerDesignDay
8,15.279570320736273
10,11017147.117892286
2,1, 7,21, 0,11,50.00,60.00,SummerDesignDay
8,15.351041933031768
10,11036338.421529346
2,1, 7,21, 0,11, 0.00,60.00,SummerDesignDay
543,27.551023302898824
583,23.998248580308439
623,23.99854931415579
663,23.9986132794791
703,23.9984207755985
743,23.999167134617598
2,1, 7,21, 0,12, 0.00,10.00,SummerDesignDay
8,15.398588405358219
10,11051557.985029959
2,1, 7,21, 0,12,10.00,20.00,SummerDesignDay
8,15.446052715183752
10,11064510.716096867
2,1, 7,21, 0,12,20.00,30.00,SummerDesignDay
8,15.49343477464616
10,11075878.735285316
2,1, 7,21, 0,12,30.00,40.00,SummerDesignDay
8,15.540735167416262
10,11091228.210618467
2,1, 7,21, 0,12,40.00,50.00,SummerDesignDay
8,15.5879540267837
10,11106721.615871827
2,1, 7,21, 0,12,50.00,60.00,SummerDesignDay
8,15.635083005635869
10,11122539.901511699
2,1, 7,21, 0,12, 0.00,60.00,SummerDesignDay
543,27.936179718832716
583,23.99785588672846
623,23.99803979954723
663,23.99875750335281
703,23.998122502800866
743,23.999006136890448
2,1, 7,21, 0,13, 0.00,10.00,SummerDesignDay
8,15.672742208436498
10,11078248.851256468
2,1, 7,21, 0,13,10.00,20.00,SummerDesignDay
8,15.710340969654615
10,11086605.801558452
2,1, 7,21, 0,13,20.00,30.00,SummerDesignDay
8,15.747888033095684
10,11093812.329534188
2,1, 7,21, 0,13,30.00,40.00,SummerDesignDay
8,15.785383551639163
10,11100875.003710876
2,1, 7,21, 0,13,40.00,50.00,SummerDesignDay
8,15.82282775038994
10,11108444.239401779
2,1, 7,21, 0,13,50.00,60.00,SummerDesignDay
8,15.860217017086074
10,11116322.538349504
2,1, 7,21, 0,13, 0.00,60.00,SummerDesignDay
543,28.214516426872593
583,23.99802425753403
623,23.99828455031411
663,23.99898490838959
703,23.998307700933699
743,23.999125319704374
2,1, 7,21, 0,14, 0.00,10.00,SummerDesignDay
8,15.883568075083165
10,11121529.460025952
2,1, 7,21, 0,14,10.00,20.00,SummerDesignDay
8,15.90689057388262
10,11126582.247692502
2,1, 7,21, 0,14,20.00,30.00,SummerDesignDay
8,15.930198537609293
10,11131266.792827197
2,1, 7,21, 0,14,30.00,40.00,SummerDesignDay
8,15.953480916421125
10,11136001.898654508
2,1, 7,21, 0,14,40.00,50.00,SummerDesignDay
8,15.976740305385036
10,11142756.004245747
2,1, 7,21, 0,14,50.00,60.00,SummerDesignDay
8,15.999991640458213
10,11152208.247269853
2,1, 7,21, 0,14, 0.00,60.00,SummerDesignDay
543,28.396392641364998
583,23.998161320361964
623,23.99849165617205
663,23.999057125715223
703,23.998436707209426
743,23.999186758551173
2,1, 7,21, 0,15, 0.00,10.00,SummerDesignDay
8,15.999991640458213
10,11209322.707414324
2,1, 7,21, 0,15,10.00,20.00,SummerDesignDay
8,15.999991640458213
10,11224921.009371113
2,1, 7,21, 0,15,20.00,30.00,SummerDesignDay
8,15.999991640458213
10,11242797.121502085
2,1, 7,21, 0,15,30.00,40.00,SummerDesignDay
8,15.999991640458213
10,11261113.252417207
2,1, 7,21, 0,15,40.00,50.00,SummerDesignDay
8,15.999991640458213
10,11278465.042226155
2,1, 7,21, 0,15,50.00,60.00,SummerDesignDay
8,15.999991640458213
10,11295496.797803319
2,1, 7,21, 0,15, 0.00,60.00,SummerDesignDay
543,28.468848819601978
583,23.99792616601049
623,23.99836532624379
663,23.998879742783037
703,23.99816238422717
743,23.99881841691283
2,1, 7,21, 0,16, 0.00,10.00,SummerDesignDay
8,15.97209710596138
10,11307105.299887998
2,1, 7,21, 0,16,10.00,20.00,SummerDesignDay
8,15.94416507597222
10,11314857.398064714
2,1, 7,21, 0,16,20.00,30.00,SummerDesignDay
8,15.916216239298901
10,11315444.388540026
2,1, 7,21, 0,16,30.00,40.00,SummerDesignDay
8,15.888235474065379
10,11306396.231894348
2,1, 7,21, 0,16,40.00,50.00,SummerDesignDay
8,15.860217017086074
10,11291472.623577534
2,1, 7,21, 0,16,50.00,60.00,SummerDesignDay
8,15.832181898598608
10,11273031.23125356
2,1, 7,21, 0,16, 0.00,60.00,SummerDesignDay
543,28.417280643117228
583,23.99762511435182
623,23.998307971404697
663,23.998785576010424
703,23.9979059313003
743,23.998165478609825
2,1, 7,21, 0,17, 0.00,10.00,SummerDesignDay
8,15.794750886687643
10,11250675.654311197
2,1, 7,21, 0,17,10.00,20.00,SummerDesignDay
8,15.757268190342203
10,11225329.816694057
2,1, 7,21, 0,17,20.00,30.00,SummerDesignDay
8,15.719725316285836
10,10712253.624098406
2,1, 7,21, 0,17,30.00,40.00,SummerDesignDay
8,15.682139513118879
10,11025673.149561942
2,1, 7,21, 0,17,40.00,50.00,SummerDesignDay
8,15.644501981724565
10,10830139.349738963
2,1, 7,21, 0,17,50.00,60.00,SummerDesignDay
8,15.60681551526909
10,10653552.755708835
2,1, 7,21, 0,17, 0.00,60.00,SummerDesignDay
543,28.24061010374878
583,23.99761031046437
623,23.99860194568271
663,23.998845158339834
703,23.99787139138679
743,23.998114669399987
2,1, 7,21, 0,18, 0.00,10.00,SummerDesignDay
8,15.559626200390355
10,10175752.888453162
2,1, 7,21, 0,18,10.00,20.00,SummerDesignDay
8,15.512358213037143
10,10128658.45168537
2,1, 7,21, 0,18,20.00,30.00,SummerDesignDay
8,15.465008577399173
10,10111239.781309136
2,1, 7,21, 0,18,30.00,40.00,SummerDesignDay
8,15.4175772553524
10,10095780.977347745
2,1, 7,21, 0,18,40.00,50.00,SummerDesignDay
8,15.370072588135076
10,10078664.373316363
2,1, 7,21, 0,18,50.00,60.00,SummerDesignDay
8,15.322476599465594
10,9971003.193731102
2,1, 7,21, 0,18, 0.00,60.00,SummerDesignDay
543,27.959525716650729
583,23.997968049570358
623,23.998946338268757
663,23.999096714514335
703,23.99824462509096
743,23.998550193292798
2,1, 7,21, 0,19, 0.00,10.00,SummerDesignDay
8,15.250921775365005
10,7198443.467291505
2,1, 7,21, 0,19,10.00,20.00,SummerDesignDay
8,15.179192271863182
10,7062401.112723116
2,1, 7,21, 0,19,20.00,30.00,SummerDesignDay
8,15.107272187816319
10,7088103.402625941
2,1, 7,21, 0,19,30.00,40.00,SummerDesignDay
8,15.035155268726266
10,7211206.368043822
2,1, 7,21, 0,19,40.00,50.00,SummerDesignDay
8,14.962861512336751
10,7178719.878933659
2,1, 7,21, 0,19,50.00,60.00,SummerDesignDay
8,14.89036566563724
10,7149861.516316292
2,1, 7,21, 0,19, 0.00,60.00,SummerDesignDay
543,27.58206790902541
583,23.998905974925156
623,23.99943614085034
663,23.99953373954249
703,23.99905665281024
743,23.99906762049966
2,1, 7,21, 0,20, 0.00,10.00,SummerDesignDay
8,14.837094087677479
10,5211471.982626195
2,1, 7,21, 0,20,10.00,20.00,SummerDesignDay
8,14.783710832879948
10,4784101.728508488
2,1, 7,21, 0,20,20.00,30.00,SummerDesignDay
8,14.730224355829785
10,5197674.377571099
2,1, 7,21, 0,20,30.00,40.00,SummerDesignDay
8,14.67663126043968
10,5170206.247547875
2,1, 7,21, 0,20,40.00,50.00,SummerDesignDay
8,14.622937600302962
10,4612167.780062909
2,1, 7,21, 0,20,50.00,60.00,SummerDesignDay
8,14.569149245335242
10,5109347.928828897
2,1, 7,21, 0,20, 0.00,60.00,SummerDesignDay
543,27.137397135645278
583,23.99948860582336
623,23.999750244167598
663,23.999799463709569
703,23.999515192622117
743,23.999582732053886
2,1, 7,21, 0,21, 0.00,10.00,SummerDesignDay
8,14.525056661573644
10,5085205.9107135799
2,1, 7,21, 0,21,10.00,20.00,SummerDesignDay
8,14.480894028919226
10,4712476.572599869
2,1, 7,21, 0,21,20.00,30.00,SummerDesignDay
8,14.436661008245095
10,4846808.900585686
2,1, 7,21, 0,21,30.00,40.00,SummerDesignDay
8,14.392357879829524
10,5000314.445049583
2,1, 7,21, 0,21,40.00,50.00,SummerDesignDay
8,14.347984248733969
10,4817575.3084785449
2,1, 7,21, 0,21,50.00,60.00,SummerDesignDay
8,14.303539944103879
10,4559676.960245134
2,1, 7,21, 0,21, 0.00,60.00,SummerDesignDay
543,26.70960632357595
583,23.99966771925658
623,23.9998441740577
663,23.999869588997148
703,23.999643467891663
743,23.999778936417159
2,1, 7,21, 0,22, 0.00,10.00,SummerDesignDay
8,14.259024398703542
10,2825352.86398477
2,1, 7,21, 0,22,10.00,20.00,SummerDesignDay
8,14.214438335520976
10,2933844.9418351745
2,1, 7,21, 0,22,20.00,30.00,SummerDesignDay
8,14.169780586953257
10,2339977.1910085177
2,1, 7,21, 0,22,30.00,40.00,SummerDesignDay
8,14.125051650264818
10,2797156.272996361
2,1, 7,21, 0,22,40.00,50.00,SummerDesignDay
8,14.080254642519318
10,2758599.551396189
2,1, 7,21, 0,22,50.00,60.00,SummerDesignDay
8,14.035382275244209
10,2339975.158942622
2,1, 7,21, 0,22, 0.00,60.00,SummerDesignDay
543,26.348245942379056
583,25.63677959518229
623,26.250923114206093
663,26.26657761683821
703,26.005964097039848
743,27.107961225785915
2,1, 7,21, 0,23, 0.00,10.00,SummerDesignDay
8,14.000420411419542
10,2607355.1188706627
2,1, 7,21, 0,23,10.00,20.00,SummerDesignDay
8,13.96543122992755
10,2266351.5331336359
2,1, 7,21, 0,23,20.00,30.00,SummerDesignDay
8,13.930394855257365
10,2229793.841147499
2,1, 7,21, 0,23,30.00,40.00,SummerDesignDay
8,13.89531462857108
10,2578861.2634288279
2,1, 7,21, 0,23,40.00,50.00,SummerDesignDay
8,13.860181259005998
10,2315373.961395423
2,1, 7,21, 0,23,50.00,60.00,SummerDesignDay
8,13.8250169053543
10,2229793.841147499
2,1, 7,21, 0,23, 0.00,60.00,SummerDesignDay
543,25.98503470510668
583,26.49323536237971
623,27.376581044850327
663,27.375390261600427
703,26.671726253649625
743,28.219144475898543
2,1, 7,21, 0,24, 0.00,10.00,SummerDesignDay
8,13.789804839937608
10,2101119.4469422979
2,1, 7,21, 0,24,10.00,20.00,SummerDesignDay
8,13.754548759541855
10,2474585.795705218
2,1, 7,21, 0,24,20.00,30.00,SummerDesignDay
8,13.71923908724926
10,2162751.221063541
2,1, 7,21, 0,24,30.00,40.00,SummerDesignDay
8,13.683894639060169
10,2101119.4469422979
2,1, 7,21, 0,24,40.00,50.00,SummerDesignDay
8,13.64850914519465
10,2101119.4469422979
2,1, 7,21, 0,24,50.00,60.00,SummerDesignDay
8,13.613075903216054
10,2494087.5818448385
2,1, 7,21, 0,24, 0.00,60.00,SummerDesignDay
543,25.81493622029704
583,26.53280085428658
623,27.500944423928087
663,27.493033722045145
703,26.56422772633145
743,28.243825094125943
3,1, 7,21, 0,SummerDesignDay
544,34.69579485095193,31.42986467338103,15,40,37.724438543259747, 4,50
584,41.66107785749565,36.35888065643345,23,60,47.835494481388568,16,60
624,39.3547440601718,33.97040499597438,23,60,43.948436043100148,17,20
664,39.09802984247362,31.07179480924983, 6,60,44.644488303309007,17,10
704,40.879234525241397,35.291506286425228, 6,50,46.53295776282075,16,50
744,38.56747342127433,31.799807225353445,23,40,44.614897302373829,12,60
4,1, 7
7,21.163624999999997,17.5,21, 5,60,25.4,21,14,60
1,YELLOWKNIFE AP ANN HTG 99.6% CONDNS DB,  62.46,-114.44,  -7.00, 205.70
2,1, 1,21, 0, 1, 0.00,10.00,WinterDesignDay
8,-40.50000009296249
10,12605019.812181857
2,1, 1,21, 0, 1,10.00,20.00,WinterDesignDay
8,-40.50000009296249
10,12666690.55680366
2,1, 1,21, 0, 1,20.00,30.00,WinterDesignDay
8,-40.50000009296249
10,12726724.618078722
2,1, 1,21, 0, 1,30.00,40.00,WinterDesignDay
8,-40.50000009296249
10,13221058.33234921
2,1, 1,21, 0, 1,40.00,50.00,WinterDesignDay
8,-40.50000009296249
10,12841653.080963744
2,1, 1,21, 0, 1,50.00,60.00,WinterDesignDay
8,-40.50000009296249
10,12896705.370942085
2,1, 1,21, 0, 1, 0.00,60.00,WinterDesignDay
543,11.482596072115007
583,18.000030153470946
623,18.00010926082398
663,18.00010251074514
703,18.00014954193801
743,18.000100453964519
2,1, 1,21, 0, 2, 0.00,10.00,WinterDesignDay
8,-40.50000009296249
10,12951014.560794615
2,1, 1,21, 0, 2,10.00,20.00,WinterDesignDay
8,-40.50000009296249
10,13438707.618070575
2,1, 1,21, 0, 2,20.00,30.00,WinterDesignDay
8,-40.50000009296249
10,13056525.129931838
2,1, 1,21, 0, 2,30.00,40.00,WinterDesignDay
8,-40.50000009296249
10,13107794.806229219
2,1, 1,21, 0, 2,40.00,50.00,WinterDesignDay
8,-40.50000009296249
10,13158628.582478788
2,1, 1,21, 0, 2,50.00,60.00,WinterDesignDay
8,-40.50000009296249
10,13641077.552709125
2,1, 1,21, 0, 2, 0.00,60.00,WinterDesignDay
543,11.261594263923952
583,18.00003144123972
623,18.000090199630824
663,18.00008522035927
703,18.000119992063266
743,18.000083745658924
2,1, 1,21, 0, 3, 0.00,10.00,WinterDesignDay
8,-40.50000009296249
10,13257909.55689601
2,1, 1,21, 0, 3,10.00,20.00,WinterDesignDay
8,-40.50000009296249
10,13306535.94900202
2,1, 1,21, 0, 3,20.00,30.00,WinterDesignDay
8,-40.50000009296249
10,13392165.081770352
2,1, 1,21, 0, 3,30.00,40.00,WinterDesignDay
8,-40.50000009296249
10,13795367.257289913
2,1, 1,21, 0, 3,40.00,50.00,WinterDesignDay
8,-40.50000009296249
10,13449056.840394872
2,1, 1,21, 0, 3,50.00,60.00,WinterDesignDay
8,-40.50000009296249
10,13495499.970355994
2,1, 1,21, 0, 3, 0.00,60.00,WinterDesignDay
543,11.055508488252884
583,18.000030478814023
623,18.000075266861157
663,18.00007146863953
703,18.000098246411949
743,18.000070384703915
2,1, 1,21, 0, 4, 0.00,10.00,WinterDesignDay
8,-40.50000009296249
10,13879751.502566114
2,1, 1,21, 0, 4,10.00,20.00,WinterDesignDay
8,-40.50000009296249
10,13684465.081918339
2,1, 1,21, 0, 4,20.00,30.00,WinterDesignDay
8,-40.50000009296249
10,13631322.110780342
2,1, 1,21, 0, 4,30.00,40.00,WinterDesignDay
8,-40.50000009296249
10,13675680.875187174
2,1, 1,21, 0, 4,40.00,50.00,WinterDesignDay
8,-40.50000009296249
10,14156225.366255893
2,1, 1,21, 0, 4,50.00,60.00,WinterDesignDay
8,-40.50000009296249
10,13762805.660520718
2,1, 1,21, 0, 4, 0.00,60.00,WinterDesignDay
543,10.864959233594697
583,18.000028987550836
623,18.000063793316657
663,18.000060751197166
703,18.00008269403708
743,18.000059903468999
2,1, 1,21, 0, 5, 0.00,10.00,WinterDesignDay
8,-40.50000009296249
10,13805193.258203198
2,1, 1,21, 0, 5,10.00,20.00,WinterDesignDay
8,-40.50000009296249
10,13847495.641765325
2,1, 1,21, 0, 5,20.00,30.00,WinterDesignDay
8,-40.50000009296249
10,14324415.778210616
2,1, 1,21, 0, 5,30.00,40.00,WinterDesignDay
8,-40.50000009296249
10,13930395.769239154
2,1, 1,21, 0, 5,40.00,50.00,WinterDesignDay
8,-40.50000009296249
10,13970843.762020154
2,1, 1,21, 0, 5,50.00,60.00,WinterDesignDay
8,-40.50000009296249
10,14011105.95135449
2,1, 1,21, 0, 5, 0.00,60.00,WinterDesignDay
543,10.689629783953995
583,18.000027642990334
623,18.000055080386319
663,18.000052490729819
703,18.000071793833006
743,18.000051765617348
2,1, 1,21, 0, 6, 0.00,10.00,WinterDesignDay
8,-40.50000009296249
10,14484117.891302219
2,1, 1,21, 0, 6,10.00,20.00,WinterDesignDay
8,-40.50000009296249
10,14089886.004746698
2,1, 1,21, 0, 6,20.00,30.00,WinterDesignDay
8,-40.50000009296249
10,14128416.040124862
2,1, 1,21, 0, 6,30.00,40.00,WinterDesignDay
8,-40.50000009296249
10,14166723.71246321
2,1, 1,21, 0, 6,40.00,50.00,WinterDesignDay
8,-40.50000009296249
10,14635334.72703617
2,1, 1,21, 0, 6,50.00,60.00,WinterDesignDay
8,-40.50000009296249
10,14241473.313111354
2,1, 1,21, 0, 6, 0.00,60.00,WinterDesignDay
543,10.529314785933917
583,18.000026700111968
623,18.000048533471355
663,18.000046183415017
703,18.00006431276469
743,18.00004550140208
2,1, 1,21, 0, 7, 0.00,10.00,WinterDesignDay
8,-40.50000009296249
10,19468761.46291437
2,1, 1,21, 0, 7,10.00,20.00,WinterDesignDay
8,-40.50000009296249
10,15368613.474276668
2,1, 1,21, 0, 7,20.00,30.00,WinterDesignDay
8,-40.50000009296249
10,19950403.941153714
2,1, 1,21, 0, 7,30.00,40.00,WinterDesignDay
8,-40.50000009296249
10,18514097.288088427
2,1, 1,21, 0, 7,40.00,50.00,WinterDesignDay
8,-40.50000009296249
10,18310915.790598576
2,1, 1,21, 0, 7,50.00,60.00,WinterDesignDay
8,-40.50000009296249
10,18626973.216508729
2,1, 1,21, 0, 7, 0.00,60.00,WinterDesignDay
543,10.390429227971355
583,19.97369334202006
623,20.002529817846683
663,20.00121733622892
703,19.98121880277863
743,20.000787622013417
2,1, 1,21, 0, 8, 0.00,10.00,WinterDesignDay
8,-40.50000009296249
10,23896802.4732735
2,1, 1,21, 0, 8,10.00,20.00,WinterDesignDay
8,-40.50000009296249
10,19956707.45069385
2,1, 1,21, 0, 8,20.00,30.00,WinterDesignDay
8,-40.50000009296249
10,24407303.568387066
2,1, 1,21, 0, 8,30.00,40.00,WinterDesignDay
8,-40.50000009296249
10,22726429.895198976
2,1, 1,21, 0, 8,40.00,50.00,WinterDesignDay
8,-40.50000009296249
10,22836810.988809825
2,1, 1,21, 0, 8,50.00,60.00,WinterDesignDay
8,-40.50000009296249
10,22146443.676772518
2,1, 1,21, 0, 8, 0.00,60.00,WinterDesignDay
543,10.334997426899799
583,21.969450668583474
623,21.991947294758249
663,21.9961531069892
703,21.97603366153632
743,21.995931031478077
2,1, 1,21, 0, 9, 0.00,10.00,WinterDesignDay
8,-40.50000009296249
10,24130488.330019349
2,1, 1,21, 0, 9,10.00,20.00,WinterDesignDay
8,-40.50000009296249
10,23796839.15765183
2,1, 1,21, 0, 9,20.00,30.00,WinterDesignDay
8,-40.50000009296249
10,23557000.87189428
2,1, 1,21, 0, 9,30.00,40.00,WinterDesignDay
8,-40.50000009296249
10,23225601.053527204
2,1, 1,21, 0, 9,40.00,50.00,WinterDesignDay
8,-40.50000009296249
10,23019532.808597246
2,1, 1,21, 0, 9,50.00,60.00,WinterDesignDay
8,-40.50000009296249
10,22876700.89789002
2,1, 1,21, 0, 9, 0.00,60.00,WinterDesignDay
543,10.425265553737063
583,22.000264905855717
623,22.000304921728288
663,22.000283057395128
703,22.000453582439815
743,22.000271263366775
2,1, 1,21, 0,10, 0.00,10.00,WinterDesignDay
8,-40.50000009296249
10,22890432.690001094
2,1, 1,21, 0,10,10.00,20.00,WinterDesignDay
8,-40.50000009296249
10,22740977.180214038
2,1, 1,21, 0,10,20.00,30.00,WinterDesignDay
8,-40.50000009296249
10,22620284.362487649
2,1, 1,21, 0,10,30.00,40.00,WinterDesignDay
8,-40.50000009296249
10,22639362.894914666
2,1, 1,21, 0,10,40.00,50.00,WinterDesignDay
8,-40.50000009296249
10,22587033.082745848
2,1, 1,21, 0,10,50.00,60.00,WinterDesignDay
8,-40.50000009296249
10,22499193.82057178
2,1, 1,21, 0,10, 0.00,60.00,WinterDesignDay
543,10.614923246285107
583,22.000397922050828
623,22.000465097557624
663,22.000422839562245
703,22.00075806823079
743,22.000402208155664
2,1, 1,21, 0,11, 0.00,10.00,WinterDesignDay
8,-40.50000009296249
10,22620505.314394155
2,1, 1,21, 0,11,10.00,20.00,WinterDesignDay
8,-40.50000009296249
10,22731307.561680747
2,1, 1,21, 0,11,20.00,30.00,WinterDesignDay
8,-40.50000009296249
10,22660612.750397609
2,1, 1,21, 0,11,30.00,40.00,WinterDesignDay
8,-40.50000009296249
10,22592672.34911853
2,1, 1,21, 0,11,40.00,50.00,WinterDesignDay
8,-40.50000009296249
10,22527388.308490784
2,1, 1,21, 0,11,50.00,60.00,WinterDesignDay
8,-40.50000009296249
10,22464267.429734678
2,1, 1,21, 0,11, 0.00,60.00,WinterDesignDay
543,10.824515445919472
583,22.00047784826674
623,22.000583314022696
663,22.000524951389879
703,22.00098546438167
743,22.000497508361734
2,1, 1,21, 0,12, 0.00,10.00,WinterDesignDay
8,-40.50000009296249
10,22403031.1929302
2,1, 1,21, 0,12,10.00,20.00,WinterDesignDay
8,-40.50000009296249
10,22343464.046357015
2,1, 1,21, 0,12,20.00,30.00,WinterDesignDay
8,-40.50000009296249
10,22285396.392245499
2,1, 1,21, 0,12,30.00,40.00,WinterDesignDay
8,-40.50000009296249
10,22228695.64095057
2,1, 1,21, 0,12,40.00,50.00,WinterDesignDay
8,-40.50000009296249
10,22173258.044707806
2,1, 1,21, 0,12,50.00,60.00,WinterDesignDay
8,-40.50000009296249
10,22119001.663550989
2,1, 1,21, 0,12, 0.00,60.00,WinterDesignDay
543,11.023187878053726
583,22.000539903594114
623,22.000685600557813
663,22.000613727594069
703,22.00118299290109
743,22.000580603545115
2,1, 1,21, 0,13, 0.00,10.00,WinterDesignDay
8,-40.50000009296249
10,22429645.141137724
2,1, 1,21, 0,13,10.00,20.00,WinterDesignDay
8,-40.50000009296249
10,22390011.294842759
2,1, 1,21, 0,13,20.00,30.00,WinterDesignDay
8,-40.50000009296249
10,22346410.772967988
2,1, 1,21, 0,13,30.00,40.00,WinterDesignDay
8,-40.50000009296249
10,22302087.023486418
2,1, 1,21, 0,13,40.00,50.00,WinterDesignDay
8,-40.50000009296249
10,22257611.778956098
2,1, 1,21, 0,13,50.00,60.00,WinterDesignDay
8,-40.50000009296249
10,22213205.34190411
2,1, 1,21, 0,13, 0.00,60.00,WinterDesignDay
543,11.20370928336383
583,22.000610771155935
623,22.00070724349491
663,22.000628828399845
703,22.001252489027583
743,22.000593897352748
2,1, 1,21, 0,14, 0.00,10.00,WinterDesignDay
8,-40.50000009296249
10,22169048.986672444
2,1, 1,21, 0,14,10.00,20.00,WinterDesignDay
8,-40.50000009296249
10,22125280.04026725
2,1, 1,21, 0,14,20.00,30.00,WinterDesignDay
8,-40.50000009296249
10,22081992.50885482
2,1, 1,21, 0,14,30.00,40.00,WinterDesignDay
8,-40.50000009296249
10,22039252.5731827
2,1, 1,21, 0,14,40.00,50.00,WinterDesignDay
8,-40.50000009296249
10,21997106.05994194
2,1, 1,21, 0,14,50.00,60.00,WinterDesignDay
8,-40.50000009296249
10,21955584.05662634
2,1, 1,21, 0,14, 0.00,60.00,WinterDesignDay
543,11.363833624464528
583,22.000561777253308
623,22.000691263638605
663,22.0006151268896
703,22.001216498876727
743,22.000581336259559
2,1, 1,21, 0,15, 0.00,10.00,WinterDesignDay
8,-40.50000009296249
10,21551228.197268245
2,1, 1,21, 0,15,10.00,20.00,WinterDesignDay
8,-40.50000009296249
10,21498699.489284904
2,1, 1,21, 0,15,20.00,30.00,WinterDesignDay
8,-40.50000009296249
10,21451767.868093745
2,1, 1,21, 0,15,30.00,40.00,WinterDesignDay
8,-40.50000009296249
10,21407176.660647159
2,1, 1,21, 0,15,40.00,50.00,WinterDesignDay
8,-40.50000009296249
10,21364366.508728558
2,1, 1,21, 0,15,50.00,60.00,WinterDesignDay
8,-40.50000009296249
10,21323049.280139608