Program Version,EnergyPlus, Version 8.9.0-eba93e8e1b, YMD=2018.11.01 15:49
1,5,Environment Title[],Latitude[deg],Longitude[deg],Time Zone[],Elevation[m]
2,8,Day of Simulation[],Month[],Day of Month[],DST Indicator[1=yes 0=no],Hour[],StartMinute[],EndMinute[],DayType
3,5,Cumulative Day of Simulation[],Month[],Day of Month[],DST Indicator[1=yes 0=no],DayType  ! When Daily Report Variables Requested
4,2,Cumulative Days of Simulation[],Month[]  ! When Monthly Report Variables Requested
5,1,Cumulative Days of Simulation[] ! When Run Period Report Variables Requested
6,1,Calendar Year of Simulation[] ! When Annual Report Variables Requested
7,9,Environment,Site Outdoor Air Drybulb Temperature [C] !Monthly [Value,Min,Day,Hour,Minute,Max,Day,Hour,Minute]
8,1,Environment,Site Outdoor Air Wetbulb Temperature [C] !TimeStep
555,1,SP-ATTIC SYS-0 FLR-2 SCH-- UNDEFINED - HPLCMT-CORE ZN,Zone Air Temperature [C] !Hourly
556,7,SP-ATTIC SYS-0 FLR-2 SCH-- UNDEFINED - HPLCMT-CORE ZN,Zone Air Relative Humidity [%] !Daily [Value,Min,Hour,Minute,Max,Hour,Minute]
595,1,SP-CORE_ZN SYS-3 FLR-1 SCH-A HPLCMT-CORE ZN,Zone Air Temperature [C] !Hourly
596,7,SP-CORE_ZN SYS-3 FLR-1 SCH-A HPLCMT-CORE ZN,Zone Air Relative Humidity [%] !Daily [Value,Min,Hour,Minute,Max,Hour,Minute]
635,1,SP-PERIMETER_ZN_1 SYS-3 FLR-1 SCH-A HPLCMT-SOUTH ZN,Zone Air Temperature [C] !Hourly
636,7,SP-PERIMETER_ZN_1 SYS-3 FLR-1 SCH-A HPLCMT-SOUTH ZN,Zone Air Relative Humidity [%] !Daily [Value,Min,Hour,Minute,Max,Hour,Minute]
675,1,SP-PERIMETER_ZN_2 SYS-3 FLR-1 SCH-A HPLCMT-EAST ZN,Zone Air Temperature [C] !Hourly
676,7,SP-PERIMETER_ZN_2 SYS-3 FLR-1 SCH-A HPLCMT-EAST ZN,Zone Air Relative Humidity [%] !Daily [Value,Min,Hour,Minute,Max,Hour,Minute]
715,1,SP-PERIMETER_ZN_3 SYS-3 FLR-1 SCH-A HPLCMT-NORTH ZN,Zone Air Temperature [C] !Hourly
716,7,SP-PERIMETER_ZN_3 SYS-3 FLR-1 SCH-A HPLCMT-NORTH ZN,Zone Air Relative Humidity [%] !Daily [Value,Min,Hour,Minute,Max,Hour,Minute]
755,1,SP-PERIMETER_ZN_4 SYS-3 FLR-1 SCH-A HPLCMT-WEST ZN,Zone Air Temperature [C] !Hourly
756,7,SP-PERIMETER_ZN_4 SYS-3 FLR-1 SCH-A HPLCMT-WEST ZN,Zone Air Relative Humidity [%] !Daily [Value,Min,Hour,Minute,Max,Hour,Minute]
10,1,Electricity:Facility [J] !TimeStep
321,1,Gas:Facility [J] !TimeStep
End of Data Dictionary
1,VICTORIA INTL AP ANN CLG .4% CONDNS DB=>MWB,  48.65,-123.43,  -8.00,  19.50
2,1, 7,21, 0, 1, 0.00,10.00,SummerDesignDay
8,14.721558796240082
10,859719.8828564836
321,12000.0
2,1, 7,21, 0, 1,10.00,20.00,SummerDesignDay
8,14.683643112241779
10,859719.8828564836
321,12000.0
2,1, 7,21, 0, 1,20.00,30.00,SummerDesignDay
8,14.645675956341917
10,859719.8828564836
321,580916.5322554468
2,1, 7,21, 0, 1,30.00,40.00,SummerDesignDay
8,14.607657453743608
10,859719.8828564836
321,12000.0
2,1, 7,21, 0, 1,40.00,50.00,SummerDesignDay
8,14.569587142603464
10,859719.8828564836
321,585287.9031920723
2,1, 7,21, 0, 1,50.00,60.00,SummerDesignDay
8,14.531465598243408
10,859719.8828564836
321,12000.0
2,1, 7,21, 0, 1, 0.00,60.00,SummerDesignDay
555,24.62422473516959
595,24.547712781380996
635,24.557031738374094
675,24.85489547749799
715,24.457560207430615
755,25.38243860599195
2,1, 7,21, 0, 2, 0.00,10.00,SummerDesignDay
8,14.506020466548057
10,859719.8828564836
321,334971.9608224975
2,1, 7,21, 0, 2,10.00,20.00,SummerDesignDay
8,14.480552329220564
10,859719.8828564836
321,261182.08692706307
2,1, 7,21, 0, 2,20.00,30.00,SummerDesignDay
8,14.45506128680188
10,859719.8828564836
321,12000.0
2,1, 7,21, 0, 2,30.00,40.00,SummerDesignDay
8,14.429552759423784
10,859719.8828564836
321,582498.3478049161
2,1, 7,21, 0, 2,40.00,50.00,SummerDesignDay
8,14.40401519621358
10,859719.8828564836
321,12000.0
2,1, 7,21, 0, 2,50.00,60.00,SummerDesignDay
8,14.378454720466636
10,859719.8828564836
321,586725.8206823198
2,1, 7,21, 0, 2, 0.00,60.00,SummerDesignDay
555,24.41548571158188
595,24.33449106425557
635,24.3137582982463
675,24.613069592377327
715,24.223300962310217
755,25.11642832318701
2,1, 7,21, 0, 3, 0.00,10.00,SummerDesignDay
8,14.359273536304685
10,859719.8828564836
321,12000.0
2,1, 7,21, 0, 3,10.00,20.00,SummerDesignDay
8,14.34007345588328
10,859719.8828564836
321,81572.89841704695
2,1, 7,21, 0, 3,20.00,30.00,SummerDesignDay
8,14.320860276172415
10,859719.8828564836
321,510892.2918189509
2,1, 7,21, 0, 3,30.00,40.00,SummerDesignDay
8,14.301639855760449
10,859719.8828564836
321,12000.0
2,1, 7,21, 0, 3,40.00,50.00,SummerDesignDay
8,14.282400578681767
10,859719.8828564836
321,583961.2559315661
2,1, 7,21, 0, 3,50.00,60.00,SummerDesignDay
8,14.263153718277712
10,859719.8828564836
321,12000.0
2,1, 7,21, 0, 3, 0.00,60.00,SummerDesignDay
555,24.220210051596355
595,24.14686120128179
635,24.092468286148976
675,24.391087692096695
715,24.011134557870066
755,24.868590067907559
2,1, 7,21, 0, 4, 0.00,10.00,SummerDesignDay
8,14.243888085256792
10,859719.8828564836
321,543113.858326508
2,1, 7,21, 0, 4,10.00,20.00,SummerDesignDay
8,14.224615248968539
10,859719.8828564836
321,56179.25001881217
2,1, 7,21, 0, 4,20.00,30.00,SummerDesignDay
8,14.205323357892459
10,859719.8828564836
321,12000.0
2,1, 7,21, 0, 4,30.00,40.00,SummerDesignDay
8,14.186024186016255
10,859719.8828564836
321,581127.1336373184
2,1, 7,21, 0, 4,40.00,50.00,SummerDesignDay
8,14.166706078206925
10,859719.8828564836
321,12000.0
2,1, 7,21, 0, 4,50.00,60.00,SummerDesignDay
8,14.14737449004363
10,859719.8828564836
321,585479.678655981
2,1, 7,21, 0, 4, 0.00,60.00,SummerDesignDay
555,24.03137612686044
595,23.970085943840805
635,23.884374412604005
675,24.18113636527981
715,23.813050981019218
755,24.633560833293655
2,1, 7,21, 0, 5, 0.00,10.00,SummerDesignDay
8,14.134483503136803
10,859719.8828564836
321,12000.0
2,1, 7,21, 0, 5,10.00,20.00,SummerDesignDay
8,14.121586553330208
10,859719.8828564836
321,303175.5192519721
2,1, 7,21, 0, 5,20.00,30.00,SummerDesignDay
8,14.108677812040068
10,859719.8828564836
321,292452.35702225976
2,1, 7,21, 0, 5,30.00,40.00,SummerDesignDay
8,14.09576919829491
10,859719.8828564836
321,12000.0
2,1, 7,21, 0, 5,40.00,50.00,SummerDesignDay
8,14.082848749312394
10,859719.8828564836
321,582692.225098697
2,1, 7,21, 0, 5,50.00,60.00,SummerDesignDay
8,14.06992842447945
10,859719.8828564836
321,12000.0
2,1, 7,21, 0, 5, 0.00,60.00,SummerDesignDay
555,23.875988400346036
595,23.801734137474527
635,23.693632652513317
675,24.047773510906393
715,23.65981079021952
755,24.413104864067909
2,1, 7,21, 0, 6, 0.00,10.00,SummerDesignDay
8,14.082848749312394
10,867693.1926765936
321,586902.5480230061
2,1, 7,21, 0, 6,10.00,20.00,SummerDesignDay
8,14.09576919829491
10,870600.5188605831
321,12000.0
2,1, 7,21, 0, 6,20.00,30.00,SummerDesignDay
8,14.108677812040068
10,873698.8785873128
321,47455.67698627392
2,1, 7,21, 0, 6,30.00,40.00,SummerDesignDay
8,14.121586553330208
10,876094.0326917474
321,544680.8812271096
2,1, 7,21, 0, 6,40.00,50.00,SummerDesignDay
8,14.134483503136803
10,864084.6887398717
321,12000.0
2,1, 7,21, 0, 6,50.00,60.00,SummerDesignDay
8,14.14737449004363
10,871933.5281791423
321,599391.5625859097
2,1, 7,21, 0, 6, 0.00,60.00,SummerDesignDay
555,24.101304764773887
595,23.7488739237987
635,23.6621824530999
675,25.00969512758026
715,23.877995295623334
755,24.31859491505664
2,1, 7,21, 0, 7, 0.00,10.00,SummerDesignDay
8,14.192458699541419
10,1303436.317424812
321,74575.11676421415
2,1, 7,21, 0, 7,10.00,20.00,SummerDesignDay
8,14.237465289259147
10,1042383.902036438
321,503485.69663214895
2,1, 7,21, 0, 7,20.00,30.00,SummerDesignDay
8,14.282400578681767
10,1250870.4640604249
321,95864.6056009901
2,1, 7,21, 0, 7,30.00,40.00,SummerDesignDay
8,14.327269868157244
10,1249212.3331596638
321,12000.0
2,1, 7,21, 0, 7,40.00,50.00,SummerDesignDay
8,14.37206256705002
10,1258194.393927004
321,581402.3078673381
2,1, 7,21, 0, 7,50.00,60.00,SummerDesignDay
8,14.41678412858694
10,1275646.026526091
321,12000.0
2,1, 7,21, 0, 7, 0.00,60.00,SummerDesignDay
555,24.620777774699709
595,23.86926606264629
635,23.85006969604054
675,24.03573733766072
715,23.99975633081597
755,23.985762698573099
2,1, 7,21, 0, 8, 0.00,10.00,SummerDesignDay
8,14.52510778410502
10,2318861.705603652
321,610993.4709765842
2,1, 7,21, 0, 8,10.00,20.00,SummerDesignDay
8,14.633010753827032
10,2412423.420443789
321,12000.0
2,1, 7,21, 0, 8,20.00,30.00,SummerDesignDay
8,14.740500381053245
10,2432777.573133
321,612581.2049939002
2,1, 7,21, 0, 8,30.00,40.00,SummerDesignDay
8,14.847579818177666
10,2468841.9381393997
321,12000.0
2,1, 7,21, 0, 8,40.00,50.00,SummerDesignDay
8,14.954251228863502
10,2499864.8887778755
321,611265.4320197878
2,1, 7,21, 0, 8,50.00,60.00,SummerDesignDay
8,15.06052241672491
10,2529463.0551353555
321,102326.7002066992
2,1, 7,21, 0, 8, 0.00,60.00,SummerDesignDay
555,25.388763256332497
595,23.998367284354854
635,23.998497184925126
675,23.999348527687898
715,23.99992847408169
755,23.999978705608816
2,1, 7,21, 0, 9, 0.00,10.00,SummerDesignDay
8,15.17881093143959
10,6549335.877755676
321,871690.1338903804
2,1, 7,21, 0, 9,10.00,20.00,SummerDesignDay
8,15.296604763006956
10,6665266.375087292
321,1017147.476748638
2,1, 7,21, 0, 9,20.00,30.00,SummerDesignDay
8,15.413896017516949
10,6722526.858476123
321,1051204.1417919023
2,1, 7,21, 0, 9,30.00,40.00,SummerDesignDay
8,15.530698941746774
10,6775195.279398299
321,1051421.052472958
2,1, 7,21, 0, 9,40.00,50.00,SummerDesignDay
8,15.647011238756806
10,6822029.834082389
321,1051649.5617000389
2,1, 7,21, 0, 9,50.00,60.00,SummerDesignDay
8,15.76283100018377
10,6864566.407270915
321,1051879.9004343518
2,1, 7,21, 0, 9, 0.00,60.00,SummerDesignDay
555,26.314413510327325
595,23.999217751768219
635,23.999408278334405
675,23.998973212742717
715,23.999246770939693
755,23.999715335684816
2,1, 7,21, 0,10, 0.00,10.00,SummerDesignDay
8,15.866050592731839
10,7638483.075491215
321,1052111.7910111345
2,1, 7,21, 0,10,10.00,20.00,SummerDesignDay
8,15.968890456818999
10,7681907.796300573
321,1052345.2319063917
2,1, 7,21, 0,10,20.00,30.00,SummerDesignDay
8,16.071341711565816
10,7713274.546690572
321,1052580.2209940467
2,1, 7,21, 0,10,30.00,40.00,SummerDesignDay
8,16.17341255543748
10,7739997.431423924
321,1030125.4417295599
2,1, 7,21, 0,10,40.00,50.00,SummerDesignDay
8,16.27510482862286
10,7763148.25580096
321,940855.4271781315
2,1, 7,21, 0,10,50.00,60.00,SummerDesignDay
8,16.376426408509034
10,7783541.617677196
321,940562.4225366619
2,1, 7,21, 0,10, 0.00,60.00,SummerDesignDay
555,27.237744560687248
595,23.99864247932567
635,23.998869865789748
675,23.998755527701208
715,23.998712735082319
755,23.999472678941048
2,1, 7,21, 0,11, 0.00,10.00,SummerDesignDay
8,16.465508723862
10,7799940.558599484
321,1299813.0296036294
2,1, 7,21, 0,11,10.00,20.00,SummerDesignDay
8,16.55430721068082
10,7842369.3565778559
321,1895856.160875465
2,1, 7,21, 0,11,20.00,30.00,SummerDesignDay
8,16.642816905754793
10,7861576.212619178
321,1363041.5745454294
2,1, 7,21, 0,11,30.00,40.00,SummerDesignDay
8,16.731040566742377
10,7885507.792616456
321,1856101.9209419778
2,1, 7,21, 0,11,40.00,50.00,SummerDesignDay
8,16.818978528683528
10,7909614.6408892259
321,1895856.160875465
2,1, 7,21, 0,11,50.00,60.00,SummerDesignDay
8,16.906632814677363
10,7938622.767898625
321,1324185.0980414386
2,1, 7,21, 0,11, 0.00,60.00,SummerDesignDay
555,28.02388931372028
595,23.99837114017892
635,23.998364025454497
675,23.998996666201664
715,23.998472261297097
755,23.999324226632085
2,1, 7,21, 0,12, 0.00,10.00,SummerDesignDay
8,16.96490734112248
10,7962151.3258518469
321,1895856.160875465
2,1, 7,21, 0,12,10.00,20.00,SummerDesignDay
8,17.02306163681706
10,7990003.182914345
321,1323665.5637501796
2,1, 7,21, 0,12,20.00,30.00,SummerDesignDay
8,17.081091264670655
10,8021235.700691431
321,1895856.160875465
2,1, 7,21, 0,12,30.00,40.00,SummerDesignDay
8,17.138996936072375
10,8053482.780379494
321,1517339.1586783725
2,1, 7,21, 0,12,40.00,50.00,SummerDesignDay
8,17.19677903247944
10,8086893.10776813
321,1701970.3698370159
2,1, 7,21, 0,12,50.00,60.00,SummerDesignDay
8,17.254437857313869
10,8116689.910919235
321,1895856.160875465
2,1, 7,21, 0,12, 0.00,60.00,SummerDesignDay
555,28.625196481507119
595,23.998072070217917
635,23.997866602397406
675,23.99904810604985
715,23.998212925930536
755,23.99920056805691
2,1, 7,21, 0,13, 0.00,10.00,SummerDesignDay
8,17.300473352302974
10,8044206.734161712
321,1324069.5067038807
2,1, 7,21, 0,13,10.00,20.00,SummerDesignDay
8,17.346435771613007
10,8062613.245754048
321,1895856.160875465
2,1, 7,21, 0,13,20.00,30.00,SummerDesignDay
8,17.39231462602826
10,8080839.9497040589
321,1323542.207372662
2,1, 7,21, 0,13,30.00,40.00,SummerDesignDay
8,17.438120741249045
10,8097857.400681106
321,1895856.160875465
2,1, 7,21, 0,13,40.00,50.00,SummerDesignDay
8,17.48384898311392
10,8113257.592321769
321,1672310.4915526943
2,1, 7,21, 0,13,50.00,60.00,SummerDesignDay
8,17.5294944744256
10,8130068.867619825
321,1547305.5676067819
2,1, 7,21, 0,13, 0.00,60.00,SummerDesignDay
555,29.026719077390813
595,23.998217196279268
635,23.99799557230784
675,23.999105500438316
715,23.99833989560641
755,23.99927597525725
2,1, 7,21, 0,14, 0.00,10.00,SummerDesignDay
8,17.55798510290616
10,8139278.148059196
321,1895856.160875465
2,1, 7,21, 0,14,10.00,20.00,SummerDesignDay
8,17.58644628762676
10,8150321.236268502
321,1323952.4661279456
2,1, 7,21, 0,14,20.00,30.00,SummerDesignDay
8,17.614877255826824
10,8162637.552851229
321,1895856.160875465
2,1, 7,21, 0,14,30.00,40.00,SummerDesignDay
8,17.64327765125093
10,8180928.728898628
321,1323418.1334884729
2,1, 7,21, 0,14,40.00,50.00,SummerDesignDay
8,17.671648854260988
10,8204055.292003634
321,1895856.160875465
2,1, 7,21, 0,14,50.00,60.00,SummerDesignDay
8,17.699989806758667
10,8230066.88018666
321,1827694.6122999513
2,1, 7,21, 0,14, 0.00,60.00,SummerDesignDay
555,29.239662017818195
595,23.998291816104076
635,23.998266355051258
675,23.99912082517369
715,23.998409876770706
755,23.999265527009496
2,1, 7,21, 0,15, 0.00,10.00,SummerDesignDay
8,17.699989806758667
10,8355869.587601961
321,1392292.0565981644
2,1, 7,21, 0,15,10.00,20.00,SummerDesignDay
8,17.699989806758667
10,8390465.598863284
321,1895856.160875465
2,1, 7,21, 0,15,20.00,30.00,SummerDesignDay
8,17.699989806758667
10,8430057.166673094
321,1323833.939984543
2,1, 7,21, 0,15,30.00,40.00,SummerDesignDay
8,17.699989806758667
10,8469510.994984666
321,1895856.160875465
2,1, 7,21, 0,15,40.00,50.00,SummerDesignDay
8,17.699989806758667
10,8507396.754573597
321,1323293.3162230589
2,1, 7,21, 0,15,50.00,60.00,SummerDesignDay
8,17.699989806758667
10,8544372.751400624
321,1895856.160875465
2,1, 7,21, 0,15, 0.00,60.00,SummerDesignDay
555,29.254761404285408
595,23.99794062693901
635,23.998208521340165
675,23.998938481487035
715,23.998083325801134
755,23.998649087404613
2,1, 7,21, 0,16, 0.00,10.00,SummerDesignDay
8,17.665977997442679
10,8569101.63266721
321,1895856.160875465
2,1, 7,21, 0,16,10.00,20.00,SummerDesignDay
8,17.631918087786315
10,8593912.632042347
321,1324229.0254368038
2,1, 7,21, 0,16,20.00,30.00,SummerDesignDay
8,17.597820333420616
10,8608819.239196577
321,1895856.160875465
2,1, 7,21, 0,16,30.00,40.00,SummerDesignDay
8,17.563679163905577
10,8619860.213560125
321,1323712.6531640026
2,1, 7,21, 0,16,40.00,50.00,SummerDesignDay
8,17.5294944744256
10,8626738.202447584
321,1895856.160875465
2,1, 7,21, 0,16,50.00,60.00,SummerDesignDay
8,17.495266319634998
10,8630757.82294548
321,1457979.3953876619
2,1, 7,21, 0,16, 0.00,60.00,SummerDesignDay
555,29.05662694707645
595,23.99763439718568
635,23.99815308640937
675,23.99883402105633
715,23.99778635224818
755,23.9978998244454
2,1, 7,21, 0,17, 0.00,10.00,SummerDesignDay
8,17.449557296959818
10,8632151.68947379
321,1730656.7980034284
2,1, 7,21, 0,17,10.00,20.00,SummerDesignDay
8,17.40377589954532
10,8617080.158221284
321,1181061.01334401
2,1, 7,21, 0,17,20.00,30.00,SummerDesignDay
8,17.35791148637736
10,8611137.155981642
321,1180311.388571286
2,1, 7,21, 0,17,30.00,40.00,SummerDesignDay
8,17.311974118675808
10,8603434.973523157
321,1179219.8071583429
2,1, 7,21, 0,17,40.00,50.00,SummerDesignDay
8,17.26595275911724
10,8594981.49078446
321,1438130.6051675389
2,1, 7,21, 0,17,50.00,60.00,SummerDesignDay
8,17.21985864371074
10,8585715.609613877
321,1636712.6654090044
2,1, 7,21, 0,17, 0.00,60.00,SummerDesignDay
555,28.652592286096796
595,23.997558174101284
635,23.998171280297198
675,23.998868201351355
715,23.99773629213556
755,23.99783951280357
2,1, 7,21, 0,18, 0.00,10.00,SummerDesignDay
8,17.162125648791073
10,8110911.903633297
321,971915.7863544822
2,1, 7,21, 0,18,10.00,20.00,SummerDesignDay
8,17.104269902032834
10,8070935.575241528
321,940606.0738181373
2,1, 7,21, 0,18,20.00,30.00,SummerDesignDay
8,17.046289244389596
10,8040222.4072598139
321,940262.7967632852
2,1, 7,21, 0,18,30.00,40.00,SummerDesignDay
8,16.988185042855699
10,8009193.898243663
321,939927.8147073855
2,1, 7,21, 0,18,40.00,50.00,SummerDesignDay
8,16.929955683840477
10,7980293.247892671
321,939588.7906383211
2,1, 7,21, 0,18,50.00,60.00,SummerDesignDay
8,16.871601025563547
10,7952823.229267977
321,939245.0767054331
2,1, 7,21, 0,18, 0.00,60.00,SummerDesignDay
555,28.068716850363147
595,23.99795771275265
635,23.99846163557599
675,23.999099013413514
715,23.998128936340725
755,23.998293512708928
2,1, 7,21, 0,19, 0.00,10.00,SummerDesignDay
8,16.783845019079924
10,5499594.808773786
321,525549.2194634226
2,1, 7,21, 0,19,10.00,20.00,SummerDesignDay
8,16.695786295207627
10,5419667.176525075
321,772191.342269266
2,1, 7,21, 0,19,20.00,30.00,SummerDesignDay
8,16.607448466661379
10,5366972.781158705
321,772941.6098383679
2,1, 7,21, 0,19,30.00,40.00,SummerDesignDay
8,16.518823167926099
10,5315318.369889971
321,774038.4102774732
2,1, 7,21, 0,19,40.00,50.00,SummerDesignDay
8,16.429909788083927
10,5265384.271854293
321,775154.2151289415
2,1, 7,21, 0,19,50.00,60.00,SummerDesignDay
8,16.340705768209366
10,5215357.95275319
321,623235.0723964481
2,1, 7,21, 0,19, 0.00,60.00,SummerDesignDay
555,27.31309024940805
595,23.99894273062603
635,23.999211732049849
675,23.999544223474499
715,23.998958257895184
755,23.999107040197204
2,1, 7,21, 0,20, 0.00,10.00,SummerDesignDay
8,16.27510482862286
10,3367847.9822978137
321,147322.93628283719
2,1, 7,21, 0,20,10.00,20.00,SummerDesignDay
8,16.209346899979975
10,3282449.3542147965
321,681855.9510536199
2,1, 7,21, 0,20,20.00,30.00,SummerDesignDay
8,16.14343031062354
10,3208118.0506180988
321,684794.4527542399
2,1, 7,21, 0,20,30.00,40.00,SummerDesignDay
8,16.07735534694583
10,3129089.325757
321,354059.9331788957
2,1, 7,21, 0,20,40.00,50.00,SummerDesignDay
8,16.011121524499058
10,3043570.280434212
321,342544.5097788021
2,1, 7,21, 0,20,50.00,60.00,SummerDesignDay
8,15.944726939802525
10,2956655.2465605626
321,682661.6883607092
2,1, 7,21, 0,20, 0.00,60.00,SummerDesignDay
555,26.469939094135016
595,23.999559695420044
635,23.999689323007347
675,23.99981011980874
715,23.999524115498699
755,23.999695704539069
2,1, 7,21, 0,21, 0.00,10.00,SummerDesignDay
8,15.890283167506159
10,2869924.567989842
321,686183.4776915612
2,1, 7,21, 0,21,10.00,20.00,SummerDesignDay
8,15.835731425804106
10,2806683.715030765
321,94101.20451951004
2,1, 7,21, 0,21,20.00,30.00,SummerDesignDay
8,15.781076838291185
10,2755676.234250715
321,599925.2249225162
2,1, 7,21, 0,21,30.00,40.00,SummerDesignDay
8,15.726308583775304
10,2711519.681080453
321,683730.2527040797
2,1, 7,21, 0,21,40.00,50.00,SummerDesignDay
8,15.671431213250513
10,2672249.5496939027
321,551233.7338316668
2,1, 7,21, 0,21,50.00,60.00,SummerDesignDay
8,15.61645040678747
10,2636822.614823186
321,147236.9918790639
2,1, 7,21, 0,21, 0.00,60.00,SummerDesignDay
555,25.720144262420957
595,23.999761680661135
635,23.999844686422354
675,23.99989542455087
715,23.999817632508294
755,23.999921098634557
2,1, 7,21, 0,22, 0.00,10.00,SummerDesignDay
8,15.561354608572382
10,1023829.1428508395
321,684470.6467653122
2,1, 7,21, 0,22,10.00,20.00,SummerDesignDay
8,15.50614866374472
10,1042036.7552193921
321,737037.0865617996
2,1, 7,21, 0,22,20.00,30.00,SummerDesignDay
8,15.450838288133705
10,1011053.535615253
321,284959.7543548949
2,1, 7,21, 0,22,30.00,40.00,SummerDesignDay
8,15.395411716843887
10,988394.277061685
321,412293.8901333718
2,1, 7,21, 0,22,40.00,50.00,SummerDesignDay
8,15.339874488503668
10,996785.03753967
321,682958.2582841447
2,1, 7,21, 0,22,50.00,60.00,SummerDesignDay
8,15.284225663499033
10,988394.277061685
321,686529.4073786879
2,1, 7,21, 0,22, 0.00,60.00,SummerDesignDay
555,25.34720699325716
595,24.819775802393008
635,24.882187301637413
675,25.00018895061039
715,24.81856287352046
755,25.34388905420811
2,1, 7,21, 0,23, 0.00,10.00,SummerDesignDay
8,15.240869388325028
10,988394.277061685
321,12000.0
2,1, 7,21, 0,23,10.00,20.00,SummerDesignDay
8,15.197445349417654
10,988394.277061685
321,163883.5652285273
2,1, 7,21, 0,23,20.00,30.00,SummerDesignDay
8,15.153947722661958
10,988394.277061685
321,429559.07844307509
2,1, 7,21, 0,23,30.00,40.00,SummerDesignDay
8,15.110387923065014
10,988394.277061685
321,12000.0
2,1, 7,21, 0,23,40.00,50.00,SummerDesignDay
8,15.066759894808272
10,988394.277061685
321,583504.7945832925
2,1, 7,21, 0,23,50.00,60.00,SummerDesignDay
8,15.023063522448683
10,988394.277061685
321,12000.0
2,1, 7,21, 0,23, 0.00,60.00,SummerDesignDay
555,25.074344885887343
595,25.030577464191329
635,25.07255339999179
675,25.315465951928418
715,24.9671901813805
755,25.828488110160863
2,1, 7,21, 0,24, 0.00,10.00,SummerDesignDay
8,14.979292987000976
10,859719.8828564836
321,587643.663961904
2,1, 7,21, 0,24,10.00,20.00,SummerDesignDay
8,14.935459206425353
10,859719.8828564836
321,12000.0
2,1, 7,21, 0,24,20.00,30.00,SummerDesignDay
8,14.891557025823348
10,859719.8828564836
321,12000.0
2,1, 7,21, 0,24,30.00,40.00,SummerDesignDay
8,14.847579818177666
10,859719.8828564836
321,580614.345136181
2,1, 7,21, 0,24,40.00,50.00,SummerDesignDay
8,14.803539198805562
10,859719.8828564836
321,12000.0
2,1, 7,21, 0,24,50.00,60.00,SummerDesignDay
8,14.759429393816522
10,859719.8828564836
321,585015.2595262284
2,1, 7,21, 0,24, 0.00,60.00,SummerDesignDay
555,24.846993253267667
595,24.798616352447977
635,24.827911986334965
675,25.115474533594424
715,24.72000538702237
755,25.658359997662683
3,1, 7,21, 0,SummerDesignDay
556,42.165128070759148,35.38378980880205,15,10,48.74534830422223, 5,40
596,49.170320931086369,44.574305218653687,22,25,52.446147077725019,16,40
636,47.77789180281699,43.65788122198051,22,25,49.91066474114737, 6,10
676,45.519196100848,39.22075885397954, 9,10,48.704090975261518, 5,40
716,48.33938707889624,43.71222109705448,22,20,50.835145780681028,12,60
756,45.342479617092099,39.65719852320013,22,25,49.41526318522885,12,60
4,1, 7
7,21.283875,16.6,21, 5,60,26.7,21,14,60
1,VICTORIA INTL AP ANN HTG 99.6% CONDNS DB,  48.65,-123.43,  -8.00,  19.50
2,1,12,21, 0, 1, 0.00,10.00,WinterDesignDay
8,-4.000002448902599
10,859719.8828564836
321,4993609.3842917219
2,1,12,21, 0, 1,10.00,20.00,WinterDesignDay
8,-4.000002448902599
10,859719.8828564836
321,5038413.989004082
2,1,12,21, 0, 1,20.00,30.00,WinterDesignDay
8,-4.000002448902599
10,859719.8828564836
321,5654009.1696485499
2,1,12,21, 0, 1,30.00,40.00,WinterDesignDay
8,-4.000002448902599
10,859719.8828564836
321,5125972.285856869
2,1,12,21, 0, 1,40.00,50.00,WinterDesignDay
8,-4.000002448902599
10,859719.8828564836
321,5743145.831398102
2,1,12,21, 0, 1,50.00,60.00,WinterDesignDay
8,-4.000002448902599
10,859719.8828564836
321,5209797.493338632
2,1,12,21, 0, 1, 0.00,60.00,WinterDesignDay
555,14.415561324282097
595,17.999972047668107
635,18.000048932344855
675,18.00003304252042
715,18.000052233717367
755,18.00003017110202
2,1,12,21, 0, 2, 0.00,10.00,WinterDesignDay
8,-4.000002448902599
10,859719.8828564836
321,5827919.856464541
2,1,12,21, 0, 2,10.00,20.00,WinterDesignDay
8,-4.000002448902599
10,859719.8828564836
321,5290356.830475476
2,1,12,21, 0, 2,20.00,30.00,WinterDesignDay
8,-4.000002448902599
10,859719.8828564836
321,5452061.758354914
2,1,12,21, 0, 2,30.00,40.00,WinterDesignDay
8,-4.000002448902599
10,859719.8828564836
321,5821518.718596684
2,1,12,21, 0, 2,40.00,50.00,WinterDesignDay
8,-4.000002448902599
10,859719.8828564836
321,5410503.029603919
2,1,12,21, 0, 2,50.00,60.00,WinterDesignDay
8,-4.000002448902599
10,859719.8828564836
321,6023947.283367484
2,1,12,21, 0, 2, 0.00,60.00,WinterDesignDay
555,14.231821437017203
595,17.99998449066412
635,18.000040637384584
675,18.00002820620615
715,18.00004298300419
755,18.000025923342514
2,1,12,21, 0, 3, 0.00,10.00,WinterDesignDay
8,-4.000002448902599
10,859719.8828564836
321,5489123.741853683
2,1,12,21, 0, 3,10.00,20.00,WinterDesignDay
8,-4.000002448902599
10,859719.8828564836
321,6104896.83175329
2,1,12,21, 0, 3,20.00,30.00,WinterDesignDay
8,-4.000002448902599
10,859719.8828564836
321,5565906.313088455
2,1,12,21, 0, 3,30.00,40.00,WinterDesignDay
8,-4.000002448902599
10,859719.8828564836
321,5874396.453901068
2,1,12,21, 0, 3,40.00,50.00,WinterDesignDay
8,-4.000002448902599
10,859719.8828564836
321,5942901.798641789
2,1,12,21, 0, 3,50.00,60.00,WinterDesignDay
8,-4.000002448902599
10,859719.8828564836
321,5675189.801681596
2,1,12,21, 0, 3, 0.00,60.00,WinterDesignDay
555,14.056970040181247
595,17.99999172319639
635,18.000034754944108
675,18.0000246148869
715,18.00003685843021
755,18.00002272952859
2,1,12,21, 0, 4, 0.00,10.00,WinterDesignDay
8,-4.000002448902599
10,859719.8828564836
321,6283978.619922117
2,1,12,21, 0, 4,10.00,20.00,WinterDesignDay
8,-4.000002448902599
10,859719.8828564836
321,5748456.680870728
2,1,12,21, 0, 4,20.00,30.00,WinterDesignDay
8,-4.000002448902599
10,859719.8828564836
321,6362387.517823162
2,1,12,21, 0, 4,30.00,40.00,WinterDesignDay
8,-4.000002448902599
10,859719.8828564836
321,5823763.778632553
2,1,12,21, 0, 4,40.00,50.00,WinterDesignDay
8,-4.000002448902599
10,859719.8828564836
321,6271426.181125802
2,1,12,21, 0, 4,50.00,60.00,WinterDesignDay
8,-4.000002448902599
10,859719.8828564836
321,6065556.623249596
2,1,12,21, 0, 4, 0.00,60.00,WinterDesignDay
555,13.89267850169974
595,17.999995977055247
635,18.00003058915047
675,18.00002185733673
715,18.000032662836174
755,18.000020228863787
2,1,12,21, 0, 5, 0.00,10.00,WinterDesignDay
8,-4.000002448902599
10,859719.8828564836
321,5936552.138142802
2,1,12,21, 0, 5,10.00,20.00,WinterDesignDay
8,-4.000002448902599
10,859719.8828564836
321,6546376.076524618
2,1,12,21, 0, 5,20.00,30.00,WinterDesignDay
8,-4.000002448902599
10,859719.8828564836
321,6011564.678115925
2,1,12,21, 0, 5,30.00,40.00,WinterDesignDay
8,-4.000002448902599
10,859719.8828564836
321,6624485.701593791
2,1,12,21, 0, 5,40.00,50.00,WinterDesignDay
8,-4.000002448902599
10,859719.8828564836
321,6086041.664801416
2,1,12,21, 0, 5,50.00,60.00,WinterDesignDay
8,-4.000002448902599
10,859719.8828564836
321,6664385.553750844
2,1,12,21, 0, 5, 0.00,60.00,WinterDesignDay
555,13.739248949315377
595,17.999999545725868
635,18.000027742196094
675,18.000019775831388
715,18.000029922965337
755,18.00001829223986
2,1,12,21, 0, 6, 0.00,10.00,WinterDesignDay
8,-4.000002448902599
10,859719.8828564836
321,6196412.405955391
2,1,12,21, 0, 6,10.00,20.00,WinterDesignDay
8,-4.000002448902599
10,859719.8828564836
321,6195894.202384867
2,1,12,21, 0, 6,20.00,30.00,WinterDesignDay
8,-4.000002448902599
10,859719.8828564836
321,6803522.771229367
2,1,12,21, 0, 6,30.00,40.00,WinterDesignDay
8,-4.000002448902599
10,859719.8828564836
321,6268129.40254515
2,1,12,21, 0, 6,40.00,50.00,WinterDesignDay
8,-4.000002448902599
10,859719.8828564836
321,6878721.4033975959
2,1,12,21, 0, 6,50.00,60.00,WinterDesignDay
8,-4.000002448902599
10,859719.8828564836
321,6339436.144938035
2,1,12,21, 0, 6, 0.00,60.00,WinterDesignDay
555,13.595553916836288
595,18.000002150856149
635,18.000025897990779
675,18.000018245034274
715,18.000028276154
755,18.000016821002267
2,1,12,21, 0, 7, 0.00,10.00,WinterDesignDay
8,-4.000002448902599
10,909940.3293025588
321,15906085.817143999
2,1,12,21, 0, 7,10.00,20.00,WinterDesignDay
8,-4.000002448902599
10,859719.8828564836
321,7042772.978123942
2,1,12,21, 0, 7,20.00,30.00,WinterDesignDay
8,-4.000002448902599
10,859719.8828564836
321,12546689.188318715
2,1,12,21, 0, 7,30.00,40.00,WinterDesignDay
8,-4.000002448902599
10,859719.8828564836
321,11675964.340660956
2,1,12,21, 0, 7,40.00,50.00,WinterDesignDay
8,-4.000002448902599
10,859719.8828564836
321,10947360.413519554
2,1,12,21, 0, 7,50.00,60.00,WinterDesignDay
8,-4.000002448902599
10,859719.8828564836
321,11405292.18795899
2,1,12,21, 0, 7, 0.00,60.00,WinterDesignDay
555,13.470104443094249
595,19.973461024910696
635,19.97458222512335
675,19.992468872447508
715,19.97045465764824
755,20.0061392362625
2,1,12,21, 0, 8, 0.00,10.00,WinterDesignDay
8,-4.000002448902599
10,1754771.5382665659
321,19423743.861245995
2,1,12,21, 0, 8,10.00,20.00,WinterDesignDay
8,-4.000002448902599
10,1733196.2784268417
321,12653705.693579579
2,1,12,21, 0, 8,20.00,30.00,WinterDesignDay
8,-4.000002448902599
10,1733196.2784268417
321,16566897.73669836
2,1,12,21, 0, 8,30.00,40.00,WinterDesignDay
8,-4.000002448902599
10,1733196.2784268417
321,15821300.162562438
2,1,12,21, 0, 8,40.00,50.00,WinterDesignDay
8,-4.000002448902599
10,1733196.2784268417
321,15360969.391722462
2,1,12,21, 0, 8,50.00,60.00,WinterDesignDay
8,-4.000002448902599
10,1733196.2784268417
321,14736088.986490362
2,1,12,21, 0, 8, 0.00,60.00,WinterDesignDay
555,13.412937011141623
595,21.954623217552315
635,21.969830365471187
675,21.98398156810097
715,21.965794637097358
755,21.989858125846167
2,1,12,21, 0, 9, 0.00,10.00,WinterDesignDay
8,-4.000002448902599
10,5057008.6700850869
321,12925844.292772562
2,1,12,21, 0, 9,10.00,20.00,WinterDesignDay
8,-4.000002448902599
10,5057008.6700850869
321,12514678.695386894
2,1,12,21, 0, 9,20.00,30.00,WinterDesignDay
8,-4.000002448902599
10,5057008.6700850869
321,12251031.17461152
2,1,12,21, 0, 9,30.00,40.00,WinterDesignDay
8,-4.000002448902599
10,5057008.6700850869
321,12034406.810383648
2,1,12,21, 0, 9,40.00,50.00,WinterDesignDay
8,-4.000002448902599
10,5057008.6700850869
321,11739739.614717424
2,1,12,21, 0, 9,50.00,60.00,WinterDesignDay
8,-4.000002448902599
10,5057008.6700850869
321,11556386.526939018
2,1,12,21, 0, 9, 0.00,60.00,WinterDesignDay
555,13.481732569497412
595,22.00017372476799
635,22.00028796877091
675,22.000206324429656
715,22.000319397623753
755,22.00018519697807