Program Version,EnergyPlus, Version 8.9.0-eba93e8e1b, YMD=2019.08.13 17:35
1,5,Environment Title[],Latitude[deg],Longitude[deg],Time Zone[],Elevation[m]
2,8,Day of Simulation[],Month[],Day of Month[],DST Indicator[1=yes 0=no],Hour[],StartMinute[],EndMinute[],DayType
3,5,Cumulative Day of Simulation[],Month[],Day of Month[],DST Indicator[1=yes 0=no],DayType  ! When Daily Report Variables Requested
4,2,Cumulative Days of Simulation[],Month[]  ! When Monthly Report Variables Requested
5,1,Cumulative Days of Simulation[] ! When Run Period Report Variables Requested
6,1,Calendar Year of Simulation[] ! When Annual Report Variables Requested
7,9,Environment,Site Outdoor Air Drybulb Temperature [C] !Monthly [Value,Min,Day,Hour,Minute,Max,Day,Hour,Minute]
8,1,Environment,Site Outdoor Air Wetbulb Temperature [C] !TimeStep
572,1,ALL_ST=SALES AREA_FL=BUILDING STORY 1_SCH=C,Zone Air Temperature [C] !Hourly
573,7,ALL_ST=SALES AREA_FL=BUILDING STORY 1_SCH=C,Zone Air Relative Humidity [%] !Daily [Value,Min,Hour,Minute,Max,Hour,Minute]
612,1,ALL_ST=SALES AREA_FL=BUILDING STORY 1_SCH=C 1,Zone Air Temperature [C] !Hourly
613,7,ALL_ST=SALES AREA_FL=BUILDING STORY 1_SCH=C 1,Zone Air Relative Humidity [%] !Daily [Value,Min,Hour,Minute,Max,Hour,Minute]
652,1,ALL_ST=SALES AREA_FL=BUILDING STORY 1_SCH=C 2,Zone Air Temperature [C] !Hourly
653,7,ALL_ST=SALES AREA_FL=BUILDING STORY 1_SCH=C 2,Zone Air Relative Humidity [%] !Daily [Value,Min,Hour,Minute,Max,Hour,Minute]
10,1,Electricity:Facility [J] !TimeStep
End of Data Dictionary
1,RUN PERIOD 1,  48.65,-123.43,  -8.00,  19.50
2,1, 1, 1, 0, 1, 0.00,60.00,Sunday
8,-1.8635562782140467
10,44438615.742814037
2,1, 1, 1, 0, 1, 0.00,60.00,Sunday
572,18.0
612,18.0
652,18.0
2,1, 1, 1, 0, 2, 0.00,60.00,Sunday
8,-3.4960065164396849
10,51243947.31342297
2,1, 1, 1, 0, 2, 0.00,60.00,Sunday
572,17.999999999999998
612,18.0
652,18.000000000000005
2,1, 1, 1, 0, 3, 0.00,60.00,Sunday
8,-4.606234997275662
10,61209829.885167088
2,1, 1, 1, 0, 3, 0.00,60.00,Sunday
572,18.0
612,18.0
652,17.999999999999998
2,1, 1, 1, 0, 4, 0.00,60.00,Sunday
8,-5.281855436270145
10,64701714.81512316
2,1, 1, 1, 0, 4, 0.00,60.00,Sunday
572,18.000000000000005
612,18.0
652,18.000000000000005
2,1, 1, 1, 0, 5, 0.00,60.00,Sunday
8,-5.530412646284949
10,67073557.00579403
2,1, 1, 1, 0, 5, 0.00,60.00,Sunday
572,18.0
612,18.0
652,18.000000000000005
2,1, 1, 1, 0, 6, 0.00,60.00,Sunday
8,-5.820961688240668
10,64499195.85801467
2,1, 1, 1, 0, 6, 0.00,60.00,Sunday
572,18.0
612,18.0
652,18.000000000000005
2,1, 1, 1, 0, 7, 0.00,60.00,Sunday
8,-4.5721907003117769
10,61947577.892416577
2,1, 1, 1, 0, 7, 0.00,60.00,Sunday
572,18.0
612,18.0
652,18.0
2,1, 1, 1, 0, 8, 0.00,60.00,Sunday
8,-5.521562913781716
10,63530374.49439479
2,1, 1, 1, 0, 8, 0.00,60.00,Sunday
572,18.0
612,18.000000000000005
652,18.0
2,1, 1, 1, 0, 9, 0.00,60.00,Sunday
8,-4.1922384641654599
10,68816541.27473502
2,1, 1, 1, 0, 9, 0.00,60.00,Sunday
572,18.0
612,18.0
652,18.0
2,1, 1, 1, 0,10, 0.00,60.00,Sunday
8,-1.5284371637049974
10,181041754.8742963
2,1, 1, 1, 0,10, 0.00,60.00,Sunday
572,20.21006711363237
612,20.280134331516146
652,20.187959871902075
2,1, 1, 1, 0,11, 0.00,60.00,Sunday
8,-1.1338024333183428
10,161353203.60935615
2,1, 1, 1, 0,11, 0.00,60.00,Sunday
572,22.505310726908644
612,22.732268427395849
652,22.363959348923236
2,1, 1, 1, 0,12, 0.00,60.00,Sunday
8,-0.638491823826559
10,105164199.02363807
2,1, 1, 1, 0,12, 0.00,60.00,Sunday
572,23.56333842760928
612,23.43952424159258
652,23.30290200664688
2,1, 1, 1, 0,13, 0.00,60.00,Sunday
8,0.26500252542778826
10,92259418.70154022
2,1, 1, 1, 0,13, 0.00,60.00,Sunday
572,23.959600646044174
612,23.78939602077586
652,23.933855307626425
2,1, 1, 1, 0,14, 0.00,60.00,Sunday
8,0.8763233111669568
10,113009658.03143372
2,1, 1, 1, 0,14, 0.00,60.00,Sunday
572,23.99620117835675
612,23.953574388026739
652,23.988854319106097
2,1, 1, 1, 0,15, 0.00,60.00,Sunday
8,0.35580921965732878
10,114163054.16238173
2,1, 1, 1, 0,15, 0.00,60.00,Sunday
572,23.9988315326866
612,23.980866537693716
652,23.995803672500807
2,1, 1, 1, 0,16, 0.00,60.00,Sunday
8,-0.5268823702568738
10,100644653.07651426
2,1, 1, 1, 0,16, 0.00,60.00,Sunday
572,23.999901103272327
612,23.994053013607137
652,23.998403233230179
2,1, 1, 1, 0,17, 0.00,60.00,Sunday
8,-1.8087583427851524
10,104538932.30556163
2,1, 1, 1, 0,17, 0.00,60.00,Sunday
572,23.80406801504713
612,23.7023382467531
652,23.83264070953184
2,1, 1, 1, 0,18, 0.00,60.00,Sunday
8,-2.5304009972814098
10,109212220.82693409
2,1, 1, 1, 0,18, 0.00,60.00,Sunday
572,23.44643284082492
612,23.33077603627258
652,23.75729808246534
2,1, 1, 1, 0,19, 0.00,60.00,Sunday
8,-2.4811222646598609
10,121800205.65497935
2,1, 1, 1, 0,19, 0.00,60.00,Sunday
572,23.288363172273959
612,22.627391932607638
652,23.070721185095665
2,1, 1, 1, 0,20, 0.00,60.00,Sunday
8,-2.8233769406228634
10,3816559.9201591385
2,1, 1, 1, 0,20, 0.00,60.00,Sunday
572,22.04889112919789
612,21.061313056176233
652,21.48915055918549
2,1, 1, 1, 0,21, 0.00,60.00,Sunday
8,-2.6305375388243128
10,3536753.566803108
2,1, 1, 1, 0,21, 0.00,60.00,Sunday
572,20.58251039282136
612,19.42089173984047
652,19.61500841076835
2,1, 1, 1, 0,22, 0.00,60.00,Sunday
8,-3.0233119978862268
10,5156469.970380982
2,1, 1, 1, 0,22, 0.00,60.00,Sunday
572,19.391466837244886
612,18.229997704691138
652,18.261175124999658
2,1, 1, 1, 0,23, 0.00,60.00,Sunday
8,-2.826789051780635
10,11951311.717624918
2,1, 1, 1, 0,23, 0.00,60.00,Sunday
572,18.622460926648217
612,18.0
652,18.01201856329328
2,1, 1, 1, 0,24, 0.00,60.00,Sunday
8,-4.016937937811071
10,32642753.235292037
2,1, 1, 1, 0,24, 0.00,60.00,Sunday
572,18.102997355269694
612,18.0
652,18.0
3,1, 1, 1, 0,Sunday
573,29.439206411397554,21.794699248351166,12,60,35.823852346093207,24,40
613,26.271924846183269,19.524028134722156,12,40,32.171819711094027,23,15
653,28.12645292414302,20.872298092921754,13,30,34.3696852578769,22,40
2,2, 1, 2, 0, 1, 0.00,60.00,Monday
8,-3.334399152667865
10,44534392.511970449
2,2, 1, 2, 0, 1, 0.00,60.00,Monday
572,18.0
612,18.0
652,18.0
2,2, 1, 2, 0, 2, 0.00,60.00,Monday
8,-4.137659185142202
10,54205032.06242652
2,2, 1, 2, 0, 2, 0.00,60.00,Monday
572,18.0
612,18.0
652,18.0
2,2, 1, 2, 0, 3, 0.00,60.00,Monday
8,-4.016882845638239
10,57757849.26339099
2,2, 1, 2, 0, 3, 0.00,60.00,Monday
572,18.000000000000005
612,17.999999999999998
652,18.0
2,2, 1, 2, 0, 4, 0.00,60.00,Monday
8,-4.171462748868308
10,63316269.104837018
2,2, 1, 2, 0, 4, 0.00,60.00,Monday
572,18.0
612,17.999999999999998
652,18.0
2,2, 1, 2, 0, 5, 0.00,60.00,Monday
8,-4.4685735562405759
10,62010408.20063445
2,2, 1, 2, 0, 5, 0.00,60.00,Monday
572,18.0
612,17.999999999999998
652,18.0
2,2, 1, 2, 0, 6, 0.00,60.00,Monday
8,-3.775365332434919
10,70110525.65179932
2,2, 1, 2, 0, 6, 0.00,60.00,Monday
572,18.0
612,18.000000000000005
652,18.000000000000005
2,2, 1, 2, 0, 7, 0.00,60.00,Monday
8,-4.369513728768869
10,61403923.95585851
2,2, 1, 2, 0, 7, 0.00,60.00,Monday
572,18.0
612,18.0
652,18.0
2,2, 1, 2, 0, 8, 0.00,60.00,Monday
8,-4.693785810974132
10,167221311.10022304
2,2, 1, 2, 0, 8, 0.00,60.00,Monday
572,20.040997594608986
612,20.172444749509258
652,20.116910526023589
2,2, 1, 2, 0, 9, 0.00,60.00,Monday
8,-2.971531261434618
10,218411089.10889236
2,2, 1, 2, 0, 9, 0.00,60.00,Monday
572,21.829468771698175
612,21.876483369368406
652,21.84843590536087
2,2, 1, 2, 0,10, 0.00,60.00,Monday
8,-1.2825900997613527
10,134369697.8915611
2,2, 1, 2, 0,10, 0.00,60.00,Monday
572,22.13467087103197
612,22.582519668078388
652,22.191254737892686
2,2, 1, 2, 0,11, 0.00,60.00,Monday
8,-0.8484181936504679
10,104441047.66347865
2,2, 1, 2, 0,11, 0.00,60.00,Monday
572,23.474044230025716
612,23.814708947428927
652,23.336228895278994
2,2, 1, 2, 0,12, 0.00,60.00,Monday
8,0.2873657049812132
10,91986735.66774185
2,2, 1, 2, 0,12, 0.00,60.00,Monday
572,23.946195911747098
612,23.958216436025894
652,23.921521983578275
2,2, 1, 2, 0,13, 0.00,60.00,Monday
8,0.8698524594661997
10,117281996.1350293
2,2, 1, 2, 0,13, 0.00,60.00,Monday
572,23.995115146503346
612,23.990292384302497
652,23.98713504768265
2,2, 1, 2, 0,14, 0.00,60.00,Monday
8,1.333750309355447
10,113141348.40432541
2,2, 1, 2, 0,14, 0.00,60.00,Monday
572,23.998664692756788
612,23.99588705772816
652,23.995471205909248
2,2, 1, 2, 0,15, 0.00,60.00,Monday
8,1.4669875310652159
10,110640252.58916931
2,2, 1, 2, 0,15, 0.00,60.00,Monday
572,23.999502734157223
612,23.99824856617405
652,23.998260053589033
2,2, 1, 2, 0,16, 0.00,60.00,Monday
8,0.4354202496434279
10,99240676.77789949
2,2, 1, 2, 0,16, 0.00,60.00,Monday
572,24.00003095074317
612,23.99987470665616
652,23.999252240226089
2,2, 1, 2, 0,17, 0.00,60.00,Monday
8,-2.046688702506347
10,103587606.73036494
2,2, 1, 2, 0,17, 0.00,60.00,Monday
572,23.63113643404197
612,23.790276677949309
652,23.664013786779653
2,2, 1, 2, 0,18, 0.00,60.00,Monday
8,-2.7286612534713758
10,123315476.69010946
2,2, 1, 2, 0,18, 0.00,60.00,Monday
572,23.65127718151721
612,23.14456832386773
652,23.347379400777848
2,2, 1, 2, 0,19, 0.00,60.00,Monday
8,-3.219774793998852
10,124133333.01807918
2,2, 1, 2, 0,19, 0.00,60.00,Monday
572,23.361880954924844
612,22.441811330674726
652,22.65239687026102
2,2, 1, 2, 0,20, 0.00,60.00,Monday
8,-3.075391994003183
10,111545722.88819735
2,2, 1, 2, 0,20, 0.00,60.00,Monday
572,22.701665013508824
612,22.37517680897975
652,22.239781984751276
2,2, 1, 2, 0,21, 0.00,60.00,Monday
8,-3.4162146470194987
10,125589820.63940156
2,2, 1, 2, 0,21, 0.00,60.00,Monday
572,22.252461681196836
612,22.446238598270648
652,22.277514033549126
2,2, 1, 2, 0,22, 0.00,60.00,Monday
8,-3.318022291853121
10,3982462.8704050367
2,2, 1, 2, 0,22, 0.00,60.00,Monday
572,20.90533312358304
612,20.487640084864148
652,20.49680830143262
2,2, 1, 2, 0,23, 0.00,60.00,Monday
8,-2.3839560904128249
10,3541418.5111258409
2,2, 1, 2, 0,23, 0.00,60.00,Monday
572,19.71476321820034
612,18.933123396313684
652,18.974777829667674
2,2, 1, 2, 0,24, 0.00,60.00,Monday
8,-3.0128541754028306
10,10081470.720294459
2,2, 1, 2, 0,24, 0.00,60.00,Monday
572,18.6589244188112
612,18.137235753315797
652,18.154121717280309
3,2, 1, 2, 0,Monday
573,28.354103758257297,22.21910700535831,11,60,35.62537634249881, 1,60
613,25.390611956273465,19.528534427820735,11,60,31.593478966685458, 1,60
653,27.08729507398195,21.189283126240217,12,30,33.85894600393575, 1,60
2,3, 1, 3, 0, 1, 0.00,60.00,Tuesday
8,-2.8268091648413828
10,31468828.145855175
2,3, 1, 3, 0, 1, 0.00,60.00,Tuesday
572,18.119645069297726
612,18.0
652,18.0
2,3, 1, 3, 0, 2, 0.00,60.00,Tuesday
8,-2.3346743759543817
10,44859300.003372419
2,3, 1, 3, 0, 2, 0.00,60.00,Tuesday
572,18.0
612,18.0
652,18.0
2,3, 1, 3, 0, 3, 0.00,60.00,Tuesday
8,-2.6260646399762259
10,55909628.46840146
2,3, 1, 3, 0, 3, 0.00,60.00,Tuesday
572,18.000000000000005
612,18.0
652,18.0
2,3, 1, 3, 0, 4, 0.00,60.00,Tuesday
8,-4.257495667007605
10,60430863.01431621
2,3, 1, 3, 0, 4, 0.00,60.00,Tuesday
572,17.999999999999998
612,17.999999999999998
652,18.0
2,3, 1, 3, 0, 5, 0.00,60.00,Tuesday
8,-4.5398952998508179
10,62410824.7991334
2,3, 1, 3, 0, 5, 0.00,60.00,Tuesday
572,18.000000000000005
612,18.0
652,17.999999999999998
2,3, 1, 3, 0, 6, 0.00,60.00,Tuesday
8,-2.0413981479996758
10,54400427.789039049
2,3, 1, 3, 0, 6, 0.00,60.00,Tuesday
572,18.0
612,18.0
652,18.0
2,3, 1, 3, 0, 7, 0.00,60.00,Tuesday
8,-4.104056800918973
10,59291009.41147254
2,3, 1, 3, 0, 7, 0.00,60.00,Tuesday
572,18.0
612,18.000000000000005
652,18.0
2,3, 1, 3, 0, 8, 0.00,60.00,Tuesday
8,-3.32555001019812
10,156993289.09842105
2,3, 1, 3, 0, 8, 0.00,60.00,Tuesday
572,20.055498269677267
612,20.180698697239384
652,20.123663211741467
2,3, 1, 3, 0, 9, 0.00,60.00,Tuesday
8,-2.820670993359276
10,212265473.93540634
2,3, 1, 3, 0, 9, 0.00,60.00,Tuesday
572,21.83481650980752
612,21.882987634381626
652,21.853803296327546
2,3, 1, 3, 0,10, 0.00,60.00,Tuesday
8,-1.4043412693637548
10,134015151.74487399
2,3, 1, 3, 0,10, 0.00,60.00,Tuesday
572,22.147836015975288
612,22.631542904609945
652,22.195802045390633
2,3, 1, 3, 0,11, 0.00,60.00,Tuesday
8,-0.41069315729480329
10,106022729.54645531
2,3, 1, 3, 0,11, 0.00,60.00,Tuesday
572,23.2850479307925
612,23.80362327552968
652,23.199090387031295
2,3, 1, 3, 0,12, 0.00,60.00,Tuesday
8,0.9942486000869947
10,96051484.84972577
2,3, 1, 3, 0,12, 0.00,60.00,Tuesday
572,23.967222474997738
612,23.972777158474679
652,23.949110434196329
2,3, 1, 3, 0,13, 0.00,60.00,Tuesday
8,1.860794789623943
10,122164818.73742183
2,3, 1, 3, 0,13, 0.00,60.00,Tuesday
572,23.9992899556734
612,23.99735462801713
652,23.99740925284104
2,3, 1, 3, 0,14, 0.00,60.00,Tuesday
8,2.0994471194729327
10,124126081.95804982
2,3, 1, 3, 0,14, 0.00,60.00,Tuesday
572,23.99970493692091
612,23.998809012678895
652,23.99899996555002
2,3, 1, 3, 0,15, 0.00,60.00,Tuesday
8,2.5808415629312164
10,125963947.29731645
2,3, 1, 3, 0,15, 0.00,60.00,Tuesday
572,23.999805009026575
612,23.999438246249868
652,23.999558452146244
2,3, 1, 3, 0,16, 0.00,60.00,Tuesday
8,0.22568606237452655
10,112115273.64158134
2,3, 1, 3, 0,16, 0.00,60.00,Tuesday
572,23.999739875230163
612,23.999694837841767
652,23.999716141243469
2,3, 1, 3, 0,17, 0.00,60.00,Tuesday
8,-1.6088723378578523
10,103530288.35959593
2,3, 1, 3, 0,17, 0.00,60.00,Tuesday
572,23.72975714075678
612,23.88545896103316
652,23.73205433929804
2,3, 1, 3, 0,18, 0.00,60.00,Tuesday
8,-2.090573778091682
10,107851809.25266119
2,3, 1, 3, 0,18, 0.00,60.00,Tuesday
572,23.488606853438016
612,23.554156987141398
652,23.91183458791714
2,3, 1, 3, 0,19, 0.00,60.00,Tuesday
8,-2.2875229708819697
10,121406954.49505139
2,3, 1, 3, 0,19, 0.00,60.00,Tuesday
572,23.372769260260584
612,22.81844523586487
652,23.23219999039684
2,3, 1, 3, 0,20, 0.00,60.00,Tuesday
8,-1.696714612188238
10,108169486.12438993
2,3, 1, 3, 0,20, 0.00,60.00,Tuesday
572,22.588336228212904
612,22.399270142369298
652,22.307583854148363
2,3, 1, 3, 0,21, 0.00,60.00,Tuesday
8,-1.1108463403669538
10,112069014.14147404
2,3, 1, 3, 0,21, 0.00,60.00,Tuesday
572,22.272136049093456
612,22.46010138583991
652,22.299342146109745
2,3, 1, 3, 0,22, 0.00,60.00,Tuesday
8,-1.597466640300276
10,4007341.0816426787
2,3, 1, 3, 0,22, 0.00,60.00,Tuesday
572,21.087602672532165
612,20.72130464660046
652,20.734531420030384
2,3, 1, 3, 0,23, 0.00,60.00,Tuesday
8,-2.19502634974326
10,3539986.3318479077
2,3, 1, 3, 0,23, 0.00,60.00,Tuesday
572,19.740656761911568
612,19.109897707620179
652,19.08228608098532
2,3, 1, 3, 0,24, 0.00,60.00,Tuesday
8,-1.0037470319171212
10,6253577.910846574
2,3, 1, 3, 0,24, 0.00,60.00,Tuesday
572,19.0336911795664
612,18.300204321735273
652,18.298609370901777
3,3, 1, 3, 0,Tuesday
573,28.110476221338805,21.94887964667426,12,20,34.328179986342089,24,60
613,25.545408509606359,19.79218769314252,11,45,32.8266446828997,24,45
653,26.82283242208157,20.94855309433218,12,20,34.09825879243098,24,45
2,4, 1, 4, 0, 1, 0.00,60.00,Wednesday
8,-0.7542442415210673
10,14639664.200285022
2,4, 1, 4, 0, 1, 0.00,60.00,Wednesday
572,18.325971783673894
612,18.0
652,18.0
2,4, 1, 4, 0, 2, 0.00,60.00,Wednesday
8,-1.300644697138832
10,31463650.68389514
2,4, 1, 4, 0, 2, 0.00,60.00,Wednesday
572,18.007375796312915
612,18.0
652,18.0
2,4, 1, 4, 0, 3, 0.00,60.00,Wednesday
8,-1.597513336136705
10,41475895.739253718
2,4, 1, 4, 0, 3, 0.00,60.00,Wednesday
572,17.999999999999998
612,18.0
652,18.000000000000005
2,4, 1, 4, 0, 4, 0.00,60.00,Wednesday
8,-1.1061589383407038
10,40315715.396832879
2,4, 1, 4, 0, 4, 0.00,60.00,Wednesday
572,18.0
612,18.0
652,18.0
2,4, 1, 4, 0, 5, 0.00,60.00,Wednesday
8,-0.9047986104975433
10,46983400.04092527
2,4, 1, 4, 0, 5, 0.00,60.00,Wednesday
572,17.999999999999998
612,18.000000000000005
652,18.0
2,4, 1, 4, 0, 6, 0.00,60.00,Wednesday
8,-0.6667293201499651
10,37598989.120406348
2,4, 1, 4, 0, 6, 0.00,60.00,Wednesday
572,18.0
612,18.0
652,18.0
2,4, 1, 4, 0, 7, 0.00,60.00,Wednesday
8,-0.33230886347053448
10,46385697.4535547
2,4, 1, 4, 0, 7, 0.00,60.00,Wednesday
572,18.0
612,17.999999999999998
652,18.0
2,4, 1, 4, 0, 8, 0.00,60.00,Wednesday
8,-0.7124711947696234
10,138334067.59661398
2,4, 1, 4, 0, 8, 0.00,60.00,Wednesday
572,20.050199936282906
612,20.190899866216193
652,20.15246607370643
2,4, 1, 4, 0, 9, 0.00,60.00,Wednesday
8,-0.27847581049253036
10,198958686.31060035
2,4, 1, 4, 0, 9, 0.00,60.00,Wednesday
572,21.842267275618949
612,21.895679043380374
652,21.86680782185986
2,4, 1, 4, 0,10, 0.00,60.00,Wednesday
8,0.13900920525603148
10,182706031.07933644
2,4, 1, 4, 0,10, 0.00,60.00,Wednesday
572,22.097394674786515
612,22.370093317011155
652,22.227249998981884
2,4, 1, 4, 0,11, 0.00,60.00,Wednesday
8,0.704160617575466
10,139769319.30231945
2,4, 1, 4, 0,11, 0.00,60.00,Wednesday
572,22.167669713426844
612,22.545536538424736
652,22.361123016976227
2,4, 1, 4, 0,12, 0.00,60.00,Wednesday
8,1.067434761044647
10,114569969.28758158
2,4, 1, 4, 0,12, 0.00,60.00,Wednesday
572,22.2373698878392
612,22.591524253462177
652,22.39569166292476
2,4, 1, 4, 0,13, 0.00,60.00,Wednesday
8,1.4878273056472949
10,116544932.71363819
2,4, 1, 4, 0,13, 0.00,60.00,Wednesday
572,22.434534812764743
612,22.62727273324296
652,22.452655078960924
2,4, 1, 4, 0,14, 0.00,60.00,Wednesday
8,3.0581089078705969
10,115533604.50114016
2,4, 1, 4, 0,14, 0.00,60.00,Wednesday
572,22.471349737686145
612,22.666829170718317
652,22.454824850706744
2,4, 1, 4, 0,15, 0.00,60.00,Wednesday
8,2.9100457417829146
10,115037831.6628704
2,4, 1, 4, 0,15, 0.00,60.00,Wednesday
572,22.556125457084169
612,22.65466997665241
652,22.438044654930079
2,4, 1, 4, 0,16, 0.00,60.00,Wednesday
8,1.5794912681108855
10,121913414.97136504
2,4, 1, 4, 0,16, 0.00,60.00,Wednesday
572,22.569126136938086
612,22.656731476502637
652,22.437236254675299
2,4, 1, 4, 0,17, 0.00,60.00,Wednesday
8,1.7395321422010968
10,119362069.98664032
2,4, 1, 4, 0,17, 0.00,60.00,Wednesday
572,22.590924498267176
612,22.63223743112935
652,22.417147769996708
2,4, 1, 4, 0,18, 0.00,60.00,Wednesday
8,1.1999991453517827
10,117364202.54515691
2,4, 1, 4, 0,18, 0.00,60.00,Wednesday
572,22.64718043747433
612,22.623320539803463
652,22.41038306208051
2,4, 1, 4, 0,19, 0.00,60.00,Wednesday
8,1.6999967804339656
10,117059418.13937657
2,4, 1, 4, 0,19, 0.00,60.00,Wednesday
572,22.632962234413318
612,22.616634659921194
652,22.404861143458836
2,4, 1, 4, 0,20, 0.00,60.00,Wednesday
8,1.5999983693226264
10,101937594.81027125
2,4, 1, 4, 0,20, 0.00,60.00,Wednesday
572,22.370423610136144
612,22.614895712589079
652,22.404181900267287
2,4, 1, 4, 0,21, 0.00,60.00,Wednesday
8,1.6999970088022505
10,115746621.02997531
2,4, 1, 4, 0,21, 0.00,60.00,Wednesday
572,22.230357416291093
612,22.617974307603324
652,22.40319639916876
2,4, 1, 4, 0,22, 0.00,60.00,Wednesday
8,1.8392818891597962
10,4009041.647211167
2,4, 1, 4, 0,22, 0.00,60.00,Wednesday
572,21.377191310819879
612,21.19510549187528
652,21.17308005158366
2,4, 1, 4, 0,23, 0.00,60.00,Wednesday
8,1.7999973218452566
10,3533918.6846316789
2,4, 1, 4, 0,23, 0.00,60.00,Wednesday
572,20.38729370641297
612,19.985275846029535
652,20.01009952579882
2,4, 1, 4, 0,24, 0.00,60.00,Wednesday
8,1.8999955056623075
10,4006976.0940060785
2,4, 1, 4, 0,24, 0.00,60.00,Wednesday
572,19.806446384081374
612,19.151668244672938
652,19.14742651143958
3,4, 1, 4, 0,Wednesday
573,32.17189608569481,26.8696806172147,10,60,39.35929803549338,24,60
613,30.31148139943171,24.436151766903199,10,60,40.19356592750104,24,60
653,31.34190998436431,25.51891694343488,10,60,40.84670658069603,24,60
2,5, 1, 5, 0, 1, 0.00,60.00,Thursday
8,2.3488755353595875
10,7095490.318867997
2,5, 1, 5, 0, 1, 0.00,60.00,Thursday
572,18.748159728823404
612,18.07419165932339
652,18.076916660604938
2,5, 1, 5, 0, 2, 0.00,60.00,Thursday
8,2.5467130854994779
10,10720888.52430137
2,5, 1, 5, 0, 2, 0.00,60.00,Thursday
572,18.354001714262357
612,18.0
652,18.0
2,5, 1, 5, 0, 3, 0.00,60.00,Thursday
8,1.7999973218452566
10,24444111.527630718
2,5, 1, 5, 0, 3, 0.00,60.00,Thursday
572,18.04060620570388
612,18.0
652,18.0
2,5, 1, 5, 0, 4, 0.00,60.00,Thursday
8,1.5999965390729339
10,35023421.2111723
2,5, 1, 5, 0, 4, 0.00,60.00,Thursday
572,18.0
612,18.0
652,18.0
2,5, 1, 5, 0, 5, 0.00,60.00,Thursday
8,1.6999974972553285
10,36524243.68459938
2,5, 1, 5, 0, 5, 0.00,60.00,Thursday
572,18.0
612,18.0
652,18.0
2,5, 1, 5, 0, 6, 0.00,60.00,Thursday
8,1.599997526525678
10,39155323.32423757
2,5, 1, 5, 0, 6, 0.00,60.00,Thursday
572,18.0
612,18.0
652,17.999999999999998
2,5, 1, 5, 0, 7, 0.00,60.00,Thursday
8,1.5399920587424736
10,37401791.04751042
2,5, 1, 5, 0, 7, 0.00,60.00,Thursday
572,18.0
612,18.0
652,18.0
2,5, 1, 5, 0, 8, 0.00,60.00,Thursday
8,1.7394310997568455
10,139962884.6046072
2,5, 1, 5, 0, 8, 0.00,60.00,Thursday
572,20.04927280854103
612,20.185288454018936
652,20.147607248647924
2,5, 1, 5, 0, 9, 0.00,60.00,Thursday
8,4.553717686850763
10,208903472.62172739
2,5, 1, 5, 0, 9, 0.00,60.00,Thursday
572,21.83661948441684
612,21.88637105512233
652,21.85872702052565
2,5, 1, 5, 0,10, 0.00,60.00,Thursday
8,2.3999980263681586
10,189641025.9041808
2,5, 1, 5, 0,10, 0.00,60.00,Thursday
572,22.09739593210515
612,22.369928398208967
652,22.227181738715975
2,5, 1, 5, 0,11, 0.00,60.00,Thursday
8,3.699996305019598
10,153715541.80242423
2,5, 1, 5, 0,11, 0.00,60.00,Thursday
572,22.16702324200514
612,22.540716870878467
652,22.358256077846588
2,5, 1, 5, 0,12, 0.00,60.00,Thursday
8,3.299998549571138
10,116822279.43512997
2,5, 1, 5, 0,12, 0.00,60.00,Thursday
572,22.188323251279923
612,22.60364463187557
652,22.402701160603838
2,5, 1, 5, 0,13, 0.00,60.00,Thursday
8,4.1329473276009669
10,115770557.57808735
2,5, 1, 5, 0,13, 0.00,60.00,Thursday
572,22.215235936363866
612,22.650133189462058
652,22.437233146598808
2,5, 1, 5, 0,14, 0.00,60.00,Thursday
8,5.882610425516309
10,113389099.46126138
2,5, 1, 5, 0,14, 0.00,60.00,Thursday
572,22.214562514809964
612,22.6627391561155
652,22.44204111857429
2,5, 1, 5, 0,15, 0.00,60.00,Thursday
8,6.10649486854425
10,114878939.06452441
2,5, 1, 5, 0,15, 0.00,60.00,Thursday
572,22.22664981043164
612,22.67742919977809
652,22.452811466331867
2,5, 1, 5, 0,16, 0.00,60.00,Thursday
8,6.180166202396904
10,111631024.74661517
2,5, 1, 5, 0,16, 0.00,60.00,Thursday
572,22.231018626004638
612,22.677478643177616
652,22.45169352442935
2,5, 1, 5, 0,17, 0.00,60.00,Thursday
8,6.180253973204258
10,105941020.81662004
2,5, 1, 5, 0,17, 0.00,60.00,Thursday
572,22.32167080241212
612,22.64873287740119
652,22.43127609710795
2,5, 1, 5, 0,18, 0.00,60.00,Thursday
8,6.180275673814312
10,107359385.16123979
2,5, 1, 5, 0,18, 0.00,60.00,Thursday
572,22.32031977406287
612,22.632472016766969
652,22.41899862624311
2,5, 1, 5, 0,19, 0.00,60.00,Thursday
8,6.477768986587491
10,116023176.10028275
2,5, 1, 5, 0,19, 0.00,60.00,Thursday
572,22.233410054698
612,22.64296659761912
652,22.425244298082736
2,5, 1, 5, 0,20, 0.00,60.00,Thursday
8,6.576937498251256
10,104274306.85536857
2,5, 1, 5, 0,20, 0.00,60.00,Thursday
572,22.225101139332563
612,22.648719203129717
652,22.429118901371404
2,5, 1, 5, 0,21, 0.00,60.00,Thursday
8,6.676078937184515
10,99299006.85352202
2,5, 1, 5, 0,21, 0.00,60.00,Thursday
572,22.20830450250032
612,22.636956733027135
652,22.417545534670386
2,5, 1, 5, 0,22, 0.00,60.00,Thursday
8,6.676155959175749
10,3428063.631857903
2,5, 1, 5, 0,22, 0.00,60.00,Thursday
572,21.205043765019128
612,21.1035881787206
652,21.06891966539541
2,5, 1, 5, 0,23, 0.00,60.00,Thursday
8,5.69999519988882
10,3431549.4890621316
2,5, 1, 5, 0,23, 0.00,60.00,Thursday
572,20.23097725971187
612,19.880834637307009
652,19.814981776615878
2,5, 1, 5, 0,24, 0.00,60.00,Thursday
8,6.426690551540599
10,3756017.711414772
2,5, 1, 5, 0,24, 0.00,60.00,Thursday
572,19.671114753960816
612,19.120035679160517
652,19.090617083904776
3,5, 1, 5, 0,Thursday
573,38.82926491530231,32.050436988226497,10,60,47.42392652960504,24,60
613,37.60131138172009,30.479635011566115,10,60,48.26257900209497,24,60
653,38.37522067553545,31.268928593358028,10,60,48.94761437654017,24,60
2,6, 1, 6, 0, 1, 0.00,60.00,Friday
8,6.725843110753327
10,4018227.671065167
2,6, 1, 6, 0, 1, 0.00,60.00,Friday
572,19.06459686700385
612,18.364527174094698
652,18.37988006383269
2,6, 1, 6, 0, 2, 0.00,60.00,Friday
8,6.825570915157205
10,8457749.618362934
2,6, 1, 6, 0, 2, 0.00,60.00,Friday
572,18.336587403537086
612,18.0
652,18.0
2,6, 1, 6, 0, 3, 0.00,60.00,Friday
8,5.899996994549395
10,10506320.498668924
2,6, 1, 6, 0, 3, 0.00,60.00,Friday
572,18.13903408105393
612,18.0
652,18.0
2,6, 1, 6, 0, 4, 0.00,60.00,Friday
8,4.799996138235247
10,25594912.16201725
2,6, 1, 6, 0, 4, 0.00,60.00,Friday
572,18.0
612,18.0
652,18.0
2,6, 1, 6, 0, 5, 0.00,60.00,Friday
8,4.599996797830531
10,30311224.822928125
2,6, 1, 6, 0, 5, 0.00,60.00,Friday
572,17.999999999999998
612,18.0
652,18.0
2,6, 1, 6, 0, 6, 0.00,60.00,Friday
8,4.699993782758949
10,33384322.348581539
2,6, 1, 6, 0, 6, 0.00,60.00,Friday
572,18.0
612,18.0
652,18.0
2,6, 1, 6, 0, 7, 0.00,60.00,Friday
8,4.731388326731834
10,29689647.14753297
2,6, 1, 6, 0, 7, 0.00,60.00,Friday
572,18.0
612,18.0
652,18.0
2,6, 1, 6, 0, 8, 0.00,60.00,Friday
8,4.432211396711547
10,120007918.01554756
2,6, 1, 6, 0, 8, 0.00,60.00,Friday
572,20.10276337446119
612,20.229418061619478
652,20.184190139697795
2,6, 1, 6, 0, 9, 0.00,60.00,Friday
8,4.599995625100042
10,184125267.3435549
2,6, 1, 6, 0, 9, 0.00,60.00,Friday
572,21.85627298132848
612,21.911866251741736
652,21.880116963964985
2,6, 1, 6, 0,10, 0.00,60.00,Friday
8,5.230029229052835
10,163198051.87055079
2,6, 1, 6, 0,10, 0.00,60.00,Friday
572,22.099406898473779
612,22.37576367765243
652,22.23084090496229
2,6, 1, 6, 0,11, 0.00,60.00,Friday
8,5.230031069657367
10,124588796.96437922
2,6, 1, 6, 0,11, 0.00,60.00,Friday
572,22.172022564182418
612,22.55839751550274
652,22.370395820810765
2,6, 1, 6, 0,12, 0.00,60.00,Friday
8,5.529182005260592
10,111037570.26314293
2,6, 1, 6, 0,12, 0.00,60.00,Friday
572,22.192062169772428
612,22.615380221694136
652,22.41159345007931
2,6, 1, 6, 0,13, 0.00,60.00,Friday
8,5.899996374359502
10,106534448.33044407
2,6, 1, 6, 0,13, 0.00,60.00,Friday
572,22.30663514686643
612,22.633077078456276
652,22.424063740720475
2,6, 1, 6, 0,14, 0.00,60.00,Friday
8,6.027742306947535
10,104955907.52255738
2,6, 1, 6, 0,14, 0.00,60.00,Friday
572,22.542182304308214
612,22.664359417872065
652,22.497365310864969
2,6, 1, 6, 0,15, 0.00,60.00,Friday
8,6.027742306947535
10,105029789.901133
2,6, 1, 6, 0,15, 0.00,60.00,Friday
572,22.808544612006629
612,22.71531368699051
652,22.675223038674383
2,6, 1, 6, 0,16, 0.00,60.00,Friday
8,6.027725501453532
10,106820374.50218855
2,6, 1, 6, 0,16, 0.00,60.00,Friday
572,22.91015371688523
612,22.67682070433974
652,22.603889985980638
2,6, 1, 6, 0,17, 0.00,60.00,Friday
8,7.024919839495878
10,104301235.53356174
2,6, 1, 6, 0,17, 0.00,60.00,Friday
572,22.868636930065607
612,22.664030562926535
652,22.465216073259748
2,6, 1, 6, 0,18, 0.00,60.00,Friday
8,7.292842592173826
10,106397522.35846953
2,6, 1, 6, 0,18, 0.00,60.00,Friday
572,22.666750630230749
612,22.644917763390479
652,22.43843192878296
2,6, 1, 6, 0,19, 0.00,60.00,Friday
8,7.314231156779633
10,102609040.16553396
2,6, 1, 6, 0,19, 0.00,60.00,Friday
572,22.61697570589866
612,22.651217678018786
652,22.434600821016987
2,6, 1, 6, 0,20, 0.00,60.00,Friday
8,7.4467890615619078
10,88700369.71673526
2,6, 1, 6, 0,20, 0.00,60.00,Friday
572,22.333453597004067
612,22.667645571690547
652,22.44262405359808
2,6, 1, 6, 0,21, 0.00,60.00,Friday
8,7.645620852720777
10,99712758.17277484
2,6, 1, 6, 0,21, 0.00,60.00,Friday
572,22.24176811190899
612,22.646345354210817
652,22.42352036190128
2,6, 1, 6, 0,22, 0.00,60.00,Friday
8,7.745063642166335
10,3420742.2475394106
2,6, 1, 6, 0,22, 0.00,60.00,Friday
572,21.327348960375354
612,21.219184642959314
652,21.166714392363497
2,6, 1, 6, 0,23, 0.00,60.00,Friday
8,7.82259715792692
10,3420136.845485017
2,6, 1, 6, 0,23, 0.00,60.00,Friday
572,20.190193981903307
612,19.83592435737172
652,19.755820335147875
2,6, 1, 6, 0,24, 0.00,60.00,Friday
8,7.922305572063077
10,3740307.8374435615
2,6, 1, 6, 0,24, 0.00,60.00,Friday
572,19.69565490696852
612,19.158626079161459
652,19.097216629601435
3,6, 1, 6, 0,Friday
573,44.10606750130518,38.36068594381133,10,60,51.268575464366019, 3,60
613,43.17513091235884,36.448099674340138,11,60,51.57838156351646,24,60
653,43.91762936165579,37.36568472913373,11,60,52.41844812558528,24,60
2,7, 1, 7, 0, 1, 0.00,60.00,Saturday
8,7.943803671730892
10,3424854.534444837
2,7, 1, 7, 0, 1, 0.00,60.00,Saturday
572,19.126363285239856
612,18.46249369561798
652,18.435953867943149
2,7, 1, 7, 0, 2, 0.00,60.00,Saturday
8,7.922256862303217
10,9627948.638217792
2,7, 1, 7, 0, 2, 0.00,60.00,Saturday
572,18.289363692768104
612,18.0
652,18.0
2,7, 1, 7, 0, 3, 0.00,60.00,Saturday
8,7.922244718726373
10,25490084.595118878
2,7, 1, 7, 0, 3, 0.00,60.00,Saturday
572,18.0
612,18.0
652,18.0
2,7, 1, 7, 0, 4, 0.00,60.00,Saturday
8,8.063393772482442
10,25784660.564391197
2,7, 1, 7, 0, 4, 0.00,60.00,Saturday
572,18.0
612,18.0
652,18.0
2,7, 1, 7, 0, 5, 0.00,60.00,Saturday
8,7.722705856723715
10,26742378.088154787
2,7, 1, 7, 0, 5, 0.00,60.00,Saturday
572,18.0
612,18.0
652,18.0
2,7, 1, 7, 0, 6, 0.00,60.00,Saturday
8,7.722672747768921
10,30199993.270724108
2,7, 1, 7, 0, 6, 0.00,60.00,Saturday
572,18.0
612,18.0
652,17.999999999999998
2,7, 1, 7, 0, 7, 0.00,60.00,Saturday
8,7.423499393353325
10,29727936.577137405
2,7, 1, 7, 0, 7, 0.00,60.00,Saturday
572,18.0
612,18.0
652,18.000000000000005
2,7, 1, 7, 0, 8, 0.00,60.00,Saturday
8,7.744528494460702
10,111954933.01944383
2,7, 1, 7, 0, 8, 0.00,60.00,Saturday
572,20.135312992211249
612,20.246563495321757
652,20.20076530869512
2,7, 1, 7, 0, 9, 0.00,60.00,Saturday
8,7.98376864460278
10,182333557.969354
2,7, 1, 7, 0, 9, 0.00,60.00,Saturday
572,21.861459157341505
612,21.916980447934106
652,21.88418400413833
2,7, 1, 7, 0,10, 0.00,60.00,Saturday
8,7.083420100812408
10,163339717.71718119
2,7, 1, 7, 0,10, 0.00,60.00,Saturday
572,22.100026141998258
612,22.376617402937919
652,22.231568530901968
2,7, 1, 7, 0,11, 0.00,60.00,Saturday
8,6.6626156541748389
10,132011985.13461179
2,7, 1, 7, 0,11, 0.00,60.00,Saturday
572,22.171388404238774
612,22.554068570103735
652,22.368071156943935
2,7, 1, 7, 0,12, 0.00,60.00,Saturday
8,6.575960084348512
10,96608288.2275296
2,7, 1, 7, 0,12, 0.00,60.00,Saturday
572,22.995957284956704
612,23.16361846651942
652,23.07701233802007