Program Version,EnergyPlus, Version 8.9.0-eba93e8e1b, YMD=2018.11.01 15:56
1,5,Environment Title[],Latitude[deg],Longitude[deg],Time Zone[],Elevation[m]
2,8,Day of Simulation[],Month[],Day of Month[],DST Indicator[1=yes 0=no],Hour[],StartMinute[],EndMinute[],DayType
3,5,Cumulative Day of Simulation[],Month[],Day of Month[],DST Indicator[1=yes 0=no],DayType  ! When Daily Report Variables Requested
4,2,Cumulative Days of Simulation[],Month[]  ! When Monthly Report Variables Requested
5,1,Cumulative Days of Simulation[] ! When Run Period Report Variables Requested
6,1,Calendar Year of Simulation[] ! When Annual Report Variables Requested
7,9,Environment,Site Outdoor Air Drybulb Temperature [C] !Monthly [Value,Min,Day,Hour,Minute,Max,Day,Hour,Minute]
8,1,Environment,Site Outdoor Air Wetbulb Temperature [C] !TimeStep
543,1,SP-ATTIC SYS-0 FLR-2 SCH-- UNDEFINED - HPLCMT-CORE ZN,Zone Air Temperature [C] !Hourly
544,7,SP-ATTIC SYS-0 FLR-2 SCH-- UNDEFINED - HPLCMT-CORE ZN,Zone Air Relative Humidity [%] !Daily [Value,Min,Hour,Minute,Max,Hour,Minute]
583,1,SP-CORE_ZN SYS-3 FLR-1 SCH-A HPLCMT-CORE ZN,Zone Air Temperature [C] !Hourly
584,7,SP-CORE_ZN SYS-3 FLR-1 SCH-A HPLCMT-CORE ZN,Zone Air Relative Humidity [%] !Daily [Value,Min,Hour,Minute,Max,Hour,Minute]
623,1,SP-PERIMETER_ZN_1 SYS-3 FLR-1 SCH-A HPLCMT-SOUTH ZN,Zone Air Temperature [C] !Hourly
624,7,SP-PERIMETER_ZN_1 SYS-3 FLR-1 SCH-A HPLCMT-SOUTH ZN,Zone Air Relative Humidity [%] !Daily [Value,Min,Hour,Minute,Max,Hour,Minute]
663,1,SP-PERIMETER_ZN_2 SYS-3 FLR-1 SCH-A HPLCMT-EAST ZN,Zone Air Temperature [C] !Hourly
664,7,SP-PERIMETER_ZN_2 SYS-3 FLR-1 SCH-A HPLCMT-EAST ZN,Zone Air Relative Humidity [%] !Daily [Value,Min,Hour,Minute,Max,Hour,Minute]
703,1,SP-PERIMETER_ZN_3 SYS-3 FLR-1 SCH-A HPLCMT-NORTH ZN,Zone Air Temperature [C] !Hourly
704,7,SP-PERIMETER_ZN_3 SYS-3 FLR-1 SCH-A HPLCMT-NORTH ZN,Zone Air Relative Humidity [%] !Daily [Value,Min,Hour,Minute,Max,Hour,Minute]
743,1,SP-PERIMETER_ZN_4 SYS-3 FLR-1 SCH-A HPLCMT-WEST ZN,Zone Air Temperature [C] !Hourly
744,7,SP-PERIMETER_ZN_4 SYS-3 FLR-1 SCH-A HPLCMT-WEST ZN,Zone Air Relative Humidity [%] !Daily [Value,Min,Hour,Minute,Max,Hour,Minute]
10,1,Electricity:Facility [J] !TimeStep
End of Data Dictionary
1,YELLOWKNIFE AP ANN CLG .4% CONDNS DB=>MWB,  62.46,-114.44,  -7.00, 205.70
2,1, 7,21, 0, 1, 0.00,10.00,SummerDesignDay
8,13.582660593207148
10,932221.2101371687
2,1, 7,21, 0, 1,10.00,20.00,SummerDesignDay
8,13.552225261379507
10,932221.2101371687
2,1, 7,21, 0, 1,20.00,30.00,SummerDesignDay
8,13.521753554065869
10,932221.2101371687
2,1, 7,21, 0, 1,30.00,40.00,SummerDesignDay
8,13.491239669468463
10,1150080.952065574
2,1, 7,21, 0, 1,40.00,50.00,SummerDesignDay
8,13.460705579713864
10,1144889.5212593582
2,1, 7,21, 0, 1,50.00,60.00,SummerDesignDay
8,13.43013511777116
10,932221.2101371687
2,1, 7,21, 0, 1, 0.00,60.00,SummerDesignDay
543,25.477364643926607
583,25.37042970210736
623,25.719666708458378
663,25.6717760081692
703,25.36210016763546
743,26.281215312183027
2,1, 7,21, 0, 2, 0.00,10.00,SummerDesignDay
8,13.40973245557951
10,932221.2101371687
2,1, 7,21, 0, 2,10.00,20.00,SummerDesignDay
8,13.389321077939915
10,951443.6284168039
2,1, 7,21, 0, 2,20.00,30.00,SummerDesignDay
8,13.368889185101893
10,1340062.1943489463
2,1, 7,21, 0, 2,30.00,40.00,SummerDesignDay
8,13.348439009156916
10,932221.2101371687
2,1, 7,21, 0, 2,40.00,50.00,SummerDesignDay
8,13.327986740557398
10,932221.2101371687
2,1, 7,21, 0, 2,50.00,60.00,SummerDesignDay
8,13.307507118241113
10,932221.2101371687
2,1, 7,21, 0, 2, 0.00,60.00,SummerDesignDay
543,25.332140696281628
583,25.228796973723985
623,25.53911853418336
663,25.501322021870427
703,25.19124234620349
743,26.06453877601952
2,1, 7,21, 0, 3, 0.00,10.00,SummerDesignDay
8,13.292149527800867
10,1360509.1392941515
2,1, 7,21, 0, 3,10.00,20.00,SummerDesignDay
8,13.276774263645676
10,932221.2101371687
2,1, 7,21, 0, 3,20.00,30.00,SummerDesignDay
8,13.26138714285808
10,932221.2101371687
2,1, 7,21, 0, 3,30.00,40.00,SummerDesignDay
8,13.246004796135189
10,932221.2101371687
2,1, 7,21, 0, 3,40.00,50.00,SummerDesignDay
8,13.230604418546636
10,1362078.499402626
2,1, 7,21, 0, 3,50.00,60.00,SummerDesignDay
8,13.215192312230407
10,932221.2101371687
2,1, 7,21, 0, 3, 0.00,60.00,SummerDesignDay
543,25.1961775139704
583,25.10067065177286
623,25.372322350657958
663,25.343697561738087
703,25.038656151953878
743,25.868058200668334
2,1, 7,21, 0, 4, 0.00,10.00,SummerDesignDay
8,13.199784844146088
10,932221.2101371687
2,1, 7,21, 0, 4,10.00,20.00,SummerDesignDay
8,13.184359740235623
10,932221.2101371687
2,1, 7,21, 0, 4,20.00,30.00,SummerDesignDay
8,13.16892247673821
10,1363616.9514129407
2,1, 7,21, 0, 4,30.00,40.00,SummerDesignDay
8,13.15348978290439
10,932221.2101371687
2,1, 7,21, 0, 4,40.00,50.00,SummerDesignDay
8,13.138039361294093
10,932221.2101371687
2,1, 7,21, 0, 4,50.00,60.00,SummerDesignDay
8,13.122577036503083
10,932221.2101371687
2,1, 7,21, 0, 4, 0.00,60.00,SummerDesignDay
543,25.076451677440365
583,24.980152822231646
623,25.218684216837859
663,25.2237858060801
703,24.931044514406229
743,25.6875715283025
2,1, 7,21, 0, 5, 0.00,10.00,SummerDesignDay
8,13.112266222112464
10,1365146.2623328276
2,1, 7,21, 0, 5,10.00,20.00,SummerDesignDay
8,13.10196152097974
10,932221.2101371687
2,1, 7,21, 0, 5,20.00,30.00,SummerDesignDay
8,13.091643434542388
10,932221.2101371687
2,1, 7,21, 0, 5,30.00,40.00,SummerDesignDay
8,13.081321778392012
10,940170.6536806581
2,1, 7,21, 0, 5,40.00,50.00,SummerDesignDay
8,13.0709928118608
10,1374716.774852385
2,1, 7,21, 0, 5,50.00,60.00,SummerDesignDay
8,13.060673055344955
10,941509.511813913
2,1, 7,21, 0, 5, 0.00,60.00,SummerDesignDay
543,25.09439101383074
583,24.932086101131266
623,25.134095178684644
663,25.615703072646118
703,25.24820723565647
743,25.584707621845188
2,1, 7,21, 0, 6, 0.00,10.00,SummerDesignDay
8,13.0709928118608
10,942947.0961755713
2,1, 7,21, 0, 6,10.00,20.00,SummerDesignDay
8,13.081321778392012
10,944200.0973671497
2,1, 7,21, 0, 6,20.00,30.00,SummerDesignDay
8,13.091643434542388
10,1187392.4662426434
2,1, 7,21, 0, 6,30.00,40.00,SummerDesignDay
8,13.10196152097974
10,1134880.9357643023
2,1, 7,21, 0, 6,40.00,50.00,SummerDesignDay
8,13.112266222112464
10,946536.1713443507
2,1, 7,21, 0, 6,50.00,60.00,SummerDesignDay
8,13.122577036503083
10,946794.6697949165
2,1, 7,21, 0, 6, 0.00,60.00,SummerDesignDay
543,25.23000676349766
583,25.02227449756953
623,25.200978671232606
663,26.74805155669954
703,25.614014219605154
743,25.627733765241549
2,1, 7,21, 0, 7, 0.00,10.00,SummerDesignDay
8,13.15862867833626
10,2661018.757352223
2,1, 7,21, 0, 7,10.00,20.00,SummerDesignDay
8,13.194644070480845
10,2698221.840860163
2,1, 7,21, 0, 7,20.00,30.00,SummerDesignDay
8,13.230604418546636
10,2113650.6113199975
2,1, 7,21, 0, 7,30.00,40.00,SummerDesignDay
8,13.26651590856478
10,1975877.944205646
2,1, 7,21, 0, 7,40.00,50.00,SummerDesignDay
8,13.302385595483825
10,1920087.6602163593
2,1, 7,21, 0, 7,50.00,60.00,SummerDesignDay
8,13.338219376725212
10,2331883.1907940569
2,1, 7,21, 0, 7, 0.00,60.00,SummerDesignDay
543,25.470006599850654
583,24.0257514229091
623,24.00654106128182
663,24.123056020867634
703,24.048030086278329
743,24.01194154302415
2,1, 7,21, 0, 8, 0.00,10.00,SummerDesignDay
8,13.425035848769888
10,2924846.0244258379
2,1, 7,21, 0, 8,10.00,20.00,SummerDesignDay
8,13.511586902306613
10,3221020.872562943
2,1, 7,21, 0, 8,20.00,30.00,SummerDesignDay
8,13.597873898051125
10,3152719.3356579018
2,1, 7,21, 0, 8,30.00,40.00,SummerDesignDay
8,13.683894639060169
10,2984859.233555853
2,1, 7,21, 0, 8,40.00,50.00,SummerDesignDay
8,13.769657212591238
10,3461865.9958997766
2,1, 7,21, 0, 8,50.00,60.00,SummerDesignDay
8,13.855159377344306
10,3020041.18540312
2,1, 7,21, 0, 8, 0.00,60.00,SummerDesignDay
543,25.828690749073585
583,23.99987707721641
623,23.999934254280235
663,23.999592568801238
703,23.999873263355558
743,23.999942785013066
2,1, 7,21, 0, 9, 0.00,10.00,SummerDesignDay
8,13.950414902218398
10,7829765.553995307
2,1, 7,21, 0, 9,10.00,20.00,SummerDesignDay
8,14.045348842507606
10,8028081.0798944919
2,1, 7,21, 0, 9,20.00,30.00,SummerDesignDay
8,14.139961983695457
10,8085643.468939369
2,1, 7,21, 0, 9,30.00,40.00,SummerDesignDay
8,14.234260005634394
10,8140889.4491045069
2,1, 7,21, 0, 9,40.00,50.00,SummerDesignDay
8,14.328237377491238
10,8085380.522479951
2,1, 7,21, 0, 9,50.00,60.00,SummerDesignDay
8,14.42189931667045
10,8113133.513392348
2,1, 7,21, 0, 9, 0.00,60.00,SummerDesignDay
543,26.255468660543355
583,23.99933744867819
623,23.99961729883567
663,23.999156917089438
703,23.999379923809717
743,23.999688686344027
2,1, 7,21, 0,10, 0.00,10.00,SummerDesignDay
8,14.505431443523138
10,8886908.412534867
2,1, 7,21, 0,10,10.00,20.00,SummerDesignDay
8,14.588717042844964
10,8943952.118771535
2,1, 7,21, 0,10,20.00,30.00,SummerDesignDay
8,14.671753726890664
10,8995341.741341148
2,1, 7,21, 0,10,30.00,40.00,SummerDesignDay
8,14.7545517121811
10,9044822.616862914
2,1, 7,21, 0,10,40.00,50.00,SummerDesignDay
8,14.837094087677479
10,9092239.088644594
2,1, 7,21, 0,10,50.00,60.00,SummerDesignDay
8,14.919390937256472
10,9175497.47127964
2,1, 7,21, 0,10, 0.00,60.00,SummerDesignDay
543,26.737508834085799
583,23.998755569325213
623,23.999164372834188
663,23.99871912662069
703,23.99885316216562
743,23.99942859165446
2,1, 7,21, 0,11, 0.00,10.00,SummerDesignDay
8,14.991798446011503
10,9844682.019962743
2,1, 7,21, 0,11,10.00,20.00,SummerDesignDay
8,15.064028962078729
10,9923473.111329457
2,1, 7,21, 0,11,20.00,30.00,SummerDesignDay
8,15.136061641544572
10,9958506.717535079
2,1, 7,21, 0,11,30.00,40.00,SummerDesignDay
8,15.207903246320186
10,9990421.189193927
2,1, 7,21, 0,11,40.00,50.00,SummerDesignDay
8,15.279570320736273
10,10021398.586404847
2,1, 7,21, 0,11,50.00,60.00,SummerDesignDay
8,15.351041933031768
10,10051010.029996666
2,1, 7,21, 0,11, 0.00,60.00,SummerDesignDay
543,27.22671922401499
583,23.998376998411048
623,23.998596550731248
663,23.998742910996268
703,23.99853494579536
743,23.99924515485031
2,1, 7,21, 0,12, 0.00,10.00,SummerDesignDay
8,15.398588405358219
10,10075061.542856442
2,1, 7,21, 0,12,10.00,20.00,SummerDesignDay
8,15.446052715183752
10,10098947.021772257
2,1, 7,21, 0,12,20.00,30.00,SummerDesignDay
8,15.49343477464616
10,10123259.06534461
2,1, 7,21, 0,12,30.00,40.00,SummerDesignDay
8,15.540735167416262
10,10148539.630247724
2,1, 7,21, 0,12,40.00,50.00,SummerDesignDay
8,15.5879540267837
10,10174500.118237563
2,1, 7,21, 0,12,50.00,60.00,SummerDesignDay
8,15.635083005635869
10,10202061.908575416
2,1, 7,21, 0,12, 0.00,60.00,SummerDesignDay
543,27.6346188743901
583,23.99802268271344
623,23.998065186150997
663,23.99889941676784
703,23.998265227539318
743,23.999091341807085
2,1, 7,21, 0,13, 0.00,10.00,SummerDesignDay
8,15.672742208436498
10,10131424.34784431
2,1, 7,21, 0,13,10.00,20.00,SummerDesignDay
8,15.710340969654615
10,10147970.466894506
2,1, 7,21, 0,13,20.00,30.00,SummerDesignDay
8,15.747888033095684
10,10163037.7393768
2,1, 7,21, 0,13,30.00,40.00,SummerDesignDay
8,15.785383551639163
10,10177067.767469783
2,1, 7,21, 0,13,40.00,50.00,SummerDesignDay
8,15.82282775038994
10,10190586.596927436
2,1, 7,21, 0,13,50.00,60.00,SummerDesignDay
8,15.860217017086074
10,10203279.982234527
2,1, 7,21, 0,13, 0.00,60.00,SummerDesignDay
543,27.934602582020444
583,23.9981469595423
623,23.99813992103758
663,23.999071637630647
703,23.998405757727999
743,23.999177504940204
2,1, 7,21, 0,14, 0.00,10.00,SummerDesignDay
8,15.883568075083165
10,10211845.956144415
2,1, 7,21, 0,14,10.00,20.00,SummerDesignDay
8,15.90689057388262
10,10218876.899308632
2,1, 7,21, 0,14,20.00,30.00,SummerDesignDay
8,15.930198537609293
10,10224090.89374626
2,1, 7,21, 0,14,30.00,40.00,SummerDesignDay
8,15.953480916421125
10,10228063.029154323
2,1, 7,21, 0,14,40.00,50.00,SummerDesignDay
8,15.976740305385036
10,10233518.774575076
2,1, 7,21, 0,14,50.00,60.00,SummerDesignDay
8,15.999991640458213
10,10241636.414637065
2,1, 7,21, 0,14, 0.00,60.00,SummerDesignDay
543,28.13697650091122
583,23.998237725400896
623,23.998338914426659
663,23.999108325779575
703,23.998494862760066
743,23.999218834006
2,1, 7,21, 0,15, 0.00,10.00,SummerDesignDay
8,15.999991640458213
10,10342815.475222584
2,1, 7,21, 0,15,10.00,20.00,SummerDesignDay
8,15.999991640458213
10,10359106.956752625
2,1, 7,21, 0,15,20.00,30.00,SummerDesignDay
8,15.999991640458213
10,10377588.11923713
2,1, 7,21, 0,15,30.00,40.00,SummerDesignDay
8,15.999991640458213
10,10397144.077222836
2,1, 7,21, 0,15,40.00,50.00,SummerDesignDay
8,15.999991640458213
10,10416382.490283577
2,1, 7,21, 0,15,50.00,60.00,SummerDesignDay
8,15.999991640458213
10,10436504.604832702
2,1, 7,21, 0,15, 0.00,60.00,SummerDesignDay
543,28.2269262994846
583,23.997931372216738
623,23.99827103449516
663,23.998933337701915
703,23.99822465517001
743,23.998839130289654
2,1, 7,21, 0,16, 0.00,10.00,SummerDesignDay
8,15.97209710596138
10,10447857.557697626
2,1, 7,21, 0,16,10.00,20.00,SummerDesignDay
8,15.94416507597222
10,10455758.123772616
2,1, 7,21, 0,16,20.00,30.00,SummerDesignDay
8,15.916216239298901
10,10459534.077160022
2,1, 7,21, 0,16,30.00,40.00,SummerDesignDay
8,15.888235474065379
10,10456163.732996047
2,1, 7,21, 0,16,40.00,50.00,SummerDesignDay
8,15.860217017086074
10,10448615.049532665
2,1, 7,21, 0,16,50.00,60.00,SummerDesignDay
8,15.832181898598608
10,10438562.315402169
2,1, 7,21, 0,16, 0.00,60.00,SummerDesignDay
543,28.19257411418889
583,23.99766518844538
623,23.998382111963776
663,23.99883986540311
703,23.997979540432895
743,23.998139237762286
2,1, 7,21, 0,17, 0.00,10.00,SummerDesignDay
8,15.794750886687643
10,10424635.365789436
2,1, 7,21, 0,17,10.00,20.00,SummerDesignDay
8,15.757268190342203
10,10398104.23180091
2,1, 7,21, 0,17,20.00,30.00,SummerDesignDay
8,15.719725316285836
10,9886901.917927115
2,1, 7,21, 0,17,30.00,40.00,SummerDesignDay
8,15.682139513118879
10,9960806.02367353
2,1, 7,21, 0,17,40.00,50.00,SummerDesignDay
8,15.644501981724565
10,10248379.66430971
2,1, 7,21, 0,17,50.00,60.00,SummerDesignDay
8,15.60681551526909
10,9831040.443362348
2,1, 7,21, 0,17, 0.00,60.00,SummerDesignDay
543,28.031917908080673
583,23.997619301504988
623,23.99866686985881
663,23.998884495215138
703,23.997926065156919
743,23.997913921382094
2,1, 7,21, 0,18, 0.00,10.00,SummerDesignDay
8,15.559626200390355
10,9183969.9109058
2,1, 7,21, 0,18,10.00,20.00,SummerDesignDay
8,15.512358213037143
10,9225189.823239359
2,1, 7,21, 0,18,20.00,30.00,SummerDesignDay
8,15.465008577399173
10,9220940.418449857
2,1, 7,21, 0,18,30.00,40.00,SummerDesignDay
8,15.4175772553524
10,9197891.219492522
2,1, 7,21, 0,18,40.00,50.00,SummerDesignDay
8,15.370072588135076
10,9171379.06595408
2,1, 7,21, 0,18,50.00,60.00,SummerDesignDay
8,15.322476599465594
10,9146996.128258784
2,1, 7,21, 0,18, 0.00,60.00,SummerDesignDay
543,27.76503677114756
583,23.998006297638836
623,23.99898045597693
663,23.999113047039179
703,23.998266440623327
743,23.998262073283944
2,1, 7,21, 0,19, 0.00,10.00,SummerDesignDay
8,15.250921775365005
10,6319848.814865926
2,1, 7,21, 0,19,10.00,20.00,SummerDesignDay
8,15.179192271863182
10,6057773.527393763
2,1, 7,21, 0,19,20.00,30.00,SummerDesignDay
8,15.107272187816319
10,6003861.105517672
2,1, 7,21, 0,19,30.00,40.00,SummerDesignDay
8,15.035155268726266
10,6113980.400195315
2,1, 7,21, 0,19,40.00,50.00,SummerDesignDay
8,14.962861512336751
10,6155528.7213811459
2,1, 7,21, 0,19,50.00,60.00,SummerDesignDay
8,14.89036566563724
10,6120381.8705636239
2,1, 7,21, 0,19, 0.00,60.00,SummerDesignDay
543,27.399941332135968
583,23.998918127892208
623,23.999437841336876
663,23.99953020353993
703,23.999054362669737
743,23.998991091002336
2,1, 7,21, 0,20, 0.00,10.00,SummerDesignDay
8,14.837094087677479
10,4216394.188203276
2,1, 7,21, 0,20,10.00,20.00,SummerDesignDay
8,14.783710832879948
10,3619283.9228597616
2,1, 7,21, 0,20,20.00,30.00,SummerDesignDay
8,14.730224355829785
10,4102423.2034351525
2,1, 7,21, 0,20,30.00,40.00,SummerDesignDay
8,14.67663126043968
10,4067827.4407706626
2,1, 7,21, 0,20,40.00,50.00,SummerDesignDay
8,14.622937600302962
10,3611076.981416021
2,1, 7,21, 0,20,50.00,60.00,SummerDesignDay
8,14.569149245335242
10,3889857.981377034
2,1, 7,21, 0,20, 0.00,60.00,SummerDesignDay
543,26.966715210186114
583,23.99948806058136
623,23.999739526878103
663,23.999787586853676
703,23.999494361001653
743,23.999532324033738
2,1, 7,21, 0,21, 0.00,10.00,SummerDesignDay
8,14.525056661573644
10,3963023.797125957
2,1, 7,21, 0,21,10.00,20.00,SummerDesignDay
8,14.480894028919226
10,3664756.0102780244
2,1, 7,21, 0,21,20.00,30.00,SummerDesignDay
8,14.436661008245095
10,3634426.7831342027
2,1, 7,21, 0,21,30.00,40.00,SummerDesignDay
8,14.392357879829524
10,3857494.277885268
2,1, 7,21, 0,21,40.00,50.00,SummerDesignDay
8,14.347984248733969
10,3703052.3341817387
2,1, 7,21, 0,21,50.00,60.00,SummerDesignDay
8,14.303539944103879
10,3366868.112712134
2,1, 7,21, 0,21, 0.00,60.00,SummerDesignDay
543,26.548559375466096
583,23.999658822008028
623,23.999834228840496
663,23.999858164071655
703,23.999607611722849
743,23.99975893154844
2,1, 7,21, 0,22, 0.00,10.00,SummerDesignDay
8,14.259024398703542
10,1662813.6116309267
2,1, 7,21, 0,22,10.00,20.00,SummerDesignDay
8,14.214438335520976
10,1744065.9540856875
2,1, 7,21, 0,22,20.00,30.00,SummerDesignDay
8,14.169780586953257
10,1141464.0117446618
2,1, 7,21, 0,22,30.00,40.00,SummerDesignDay
8,14.125051650264818
10,1662384.862934452
2,1, 7,21, 0,22,40.00,50.00,SummerDesignDay
8,14.080254642519318
10,1588244.8348864567
2,1, 7,21, 0,22,50.00,60.00,SummerDesignDay
8,14.035382275244209
10,1101006.0592445124
2,1, 7,21, 0,22, 0.00,60.00,SummerDesignDay
543,26.185175522540477
583,25.198630913318298
623,25.43931889414064
663,25.381682325707346
703,25.513231685135385
743,26.20361139369687
2,1, 7,21, 0,23, 0.00,10.00,SummerDesignDay
8,14.000420411419542
10,1494818.9214632058
2,1, 7,21, 0,23,10.00,20.00,SummerDesignDay
8,13.96543122992755
10,1060895.60434237
2,1, 7,21, 0,23,20.00,30.00,SummerDesignDay
8,13.930394855257365
10,1060895.60434237
2,1, 7,21, 0,23,30.00,40.00,SummerDesignDay
8,13.89531462857108
10,1121238.07648919
2,1, 7,21, 0,23,40.00,50.00,SummerDesignDay
8,13.860181259005998
10,1428198.9939102603
2,1, 7,21, 0,23,50.00,60.00,SummerDesignDay
8,13.8250169053543
10,1060895.60434237
2,1, 7,21, 0,23, 0.00,60.00,SummerDesignDay
543,25.819272588019016
583,25.67609504224227
623,25.997357595795838
663,25.919167595333666
703,25.791761070402669
743,26.70521201073711
2,1, 7,21, 0,24, 0.00,10.00,SummerDesignDay
8,13.789804839937608
10,932221.2101371687
2,1, 7,21, 0,24,10.00,20.00,SummerDesignDay
8,13.754548759541855
10,932221.2101371687
2,1, 7,21, 0,24,20.00,30.00,SummerDesignDay
8,13.71923908724926
10,1360204.1219112247
2,1, 7,21, 0,24,30.00,40.00,SummerDesignDay
8,13.683894639060169
10,932221.2101371687
2,1, 7,21, 0,24,40.00,50.00,SummerDesignDay
8,13.64850914519465
10,932221.2101371687
2,1, 7,21, 0,24,50.00,60.00,SummerDesignDay
8,13.613075903216054
10,932221.2101371687
2,1, 7,21, 0,24, 0.00,60.00,SummerDesignDay
543,25.636727919457173
583,25.54079425289433
623,25.91168083395671
663,25.8518054055053
703,25.56939556220087
743,26.527341276388925
3,1, 7,21, 0,SummerDesignDay
544,35.241421738533087,31.869346627263167,15,50,38.433428824451748, 4,50
584,42.32242554998277,38.00985664043714,22,60,47.907390090562049,17,10
624,40.25200262492471,36.61537501924443,23,20,43.513612790793008,17,60
664,39.812858155000167,33.94538707093307, 6,60,44.58759130855886,17,10
704,41.3776761330677,36.28054085403892,22,20,46.469543629983,16,50
744,39.35181743873536,32.935468540976639,22,30,44.64723018797018,12,60
4,1, 7
7,21.163624999999997,17.5,21, 5,60,25.4,21,14,60
1,YELLOWKNIFE AP ANN HTG 99.6% CONDNS DB,  62.46,-114.44,  -7.00, 205.70
2,1, 1,21, 0, 1, 0.00,10.00,WinterDesignDay
8,-40.50000009296249
10,12604940.127378872
2,1, 1,21, 0, 1,10.00,20.00,WinterDesignDay
8,-40.50000009296249
10,12666665.112193477
2,1, 1,21, 0, 1,20.00,30.00,WinterDesignDay
8,-40.50000009296249
10,12726698.706263703
2,1, 1,21, 0, 1,30.00,40.00,WinterDesignDay
8,-40.50000009296249
10,13195106.110693088
2,1, 1,21, 0, 1,40.00,50.00,WinterDesignDay
8,-40.50000009296249
10,12867185.911000753
2,1, 1,21, 0, 1,50.00,60.00,WinterDesignDay
8,-40.50000009296249
10,12896669.734387493
2,1, 1,21, 0, 1, 0.00,60.00,WinterDesignDay
543,11.482592276559027
583,18.000022375323377
623,18.000091827133664
663,18.000083119362473
703,18.000141089089995
743,18.00007978802856
2,1, 1,21, 0, 2, 0.00,10.00,WinterDesignDay
8,-40.50000009296249
10,12950963.239037317
2,1, 1,21, 0, 2,10.00,20.00,WinterDesignDay
8,-40.50000009296249
10,13406134.490721595
2,1, 1,21, 0, 2,20.00,30.00,WinterDesignDay
8,-40.50000009296249
10,13090260.683791198
2,1, 1,21, 0, 2,30.00,40.00,WinterDesignDay
8,-40.50000009296249
10,13107740.662373716
2,1, 1,21, 0, 2,40.00,50.00,WinterDesignDay
8,-40.50000009296249
10,13158548.87417762
2,1, 1,21, 0, 2,50.00,60.00,WinterDesignDay
8,-40.50000009296249
10,13603690.967445037
2,1, 1,21, 0, 2, 0.00,60.00,WinterDesignDay
543,11.261589732675015
583,18.00002627358974
623,18.000077502462149
663,18.000070890328357
703,18.000114291022617
743,18.000068349906987
2,1, 1,21, 0, 3, 0.00,10.00,WinterDesignDay
8,-40.50000009296249
10,13298464.268315148
2,1, 1,21, 0, 3,10.00,20.00,WinterDesignDay
8,-40.50000009296249
10,13306461.421306067
2,1, 1,21, 0, 3,20.00,30.00,WinterDesignDay
8,-40.50000009296249
10,13354671.377743246
2,1, 1,21, 0, 3,30.00,40.00,WinterDesignDay
8,-40.50000009296249
10,13791687.503261602
2,1, 1,21, 0, 3,40.00,50.00,WinterDesignDay
8,-40.50000009296249
10,13495270.68947584
2,1, 1,21, 0, 3,50.00,60.00,WinterDesignDay
8,-40.50000009296249
10,13495404.14578268
2,1, 1,21, 0, 3, 0.00,60.00,WinterDesignDay
543,11.055503479856375
583,18.0000270277546
623,18.000065999566567
663,18.00006085374324
703,18.000094393310659
743,18.00005888796451
2,1, 1,21, 0, 4, 0.00,10.00,WinterDesignDay
8,-40.50000009296249
10,13541357.830733344
2,1, 1,21, 0, 4,10.00,20.00,WinterDesignDay
8,-40.50000009296249
10,13971528.407901047
2,1, 1,21, 0, 4,20.00,30.00,WinterDesignDay
8,-40.50000009296249
10,13682129.358793166
2,1, 1,21, 0, 4,30.00,40.00,WinterDesignDay
8,-40.50000009296249
10,13675563.315129457
2,1, 1,21, 0, 4,40.00,50.00,WinterDesignDay
8,-40.50000009296249
10,13719396.69604693
2,1, 1,21, 0, 4,50.00,60.00,WinterDesignDay
8,-40.50000009296249
10,14143674.176205442
2,1, 1,21, 0, 4, 0.00,60.00,WinterDesignDay
543,10.864953970764257
583,18.000026673373985
623,18.00005701916788
663,18.000052875998106
703,18.000080084548207
743,18.000051305095796
2,1, 1,21, 0, 5, 0.00,10.00,WinterDesignDay
8,-40.50000009296249
10,13859712.849437548
2,1, 1,21, 0, 5,10.00,20.00,WinterDesignDay
8,-40.50000009296249
10,13847351.916355085
2,1, 1,21, 0, 5,20.00,30.00,WinterDesignDay
8,-40.50000009296249
10,13889130.576558683
2,1, 1,21, 0, 5,30.00,40.00,WinterDesignDay
8,-40.50000009296249
10,14308231.254729268
2,1, 1,21, 0, 5,40.00,50.00,WinterDesignDay
8,-40.50000009296249
10,14028384.489880365
2,1, 1,21, 0, 5,50.00,60.00,WinterDesignDay
8,-40.50000009296249
10,14010933.442369292
2,1, 1,21, 0, 5, 0.00,60.00,WinterDesignDay
543,10.689624433867925
583,18.000026090054587
623,18.000050124584868
663,18.00004664276933
703,18.000070026103776
743,18.0000453289541
2,1, 1,21, 0, 6, 0.00,10.00,WinterDesignDay
8,-40.50000009296249
10,14050674.654393424
2,1, 1,21, 0, 6,10.00,20.00,WinterDesignDay
8,-40.50000009296249
10,14465274.940393268
2,1, 1,21, 0, 6,20.00,30.00,WinterDesignDay
8,-40.50000009296249
10,14188411.659124645
2,1, 1,21, 0, 6,30.00,40.00,WinterDesignDay
8,-40.50000009296249
10,14166519.4631769
2,1, 1,21, 0, 6,40.00,50.00,WinterDesignDay
8,-40.50000009296249
10,14204307.321746789
2,1, 1,21, 0, 6,50.00,60.00,WinterDesignDay
8,-40.50000009296249
10,14614910.021260906
2,1, 1,21, 0, 6, 0.00,60.00,WinterDesignDay
543,10.529309466935408
583,18.00002565472246
623,18.00004490420398
663,18.000041836486678
703,18.00006311310809
743,18.000040678268105
2,1, 1,21, 0, 7, 0.00,10.00,WinterDesignDay
8,-40.50000009296249
10,19407979.12530337
2,1, 1,21, 0, 7,10.00,20.00,WinterDesignDay
8,-40.50000009296249
10,15218130.894977492
2,1, 1,21, 0, 7,20.00,30.00,WinterDesignDay
8,-40.50000009296249
10,19700754.332389639
2,1, 1,21, 0, 7,30.00,40.00,WinterDesignDay
8,-40.50000009296249
10,18883258.116732666
2,1, 1,21, 0, 7,40.00,50.00,WinterDesignDay
8,-40.50000009296249
10,18384577.372727448
2,1, 1,21, 0, 7,50.00,60.00,WinterDesignDay
8,-40.50000009296249
10,18189382.419919809
2,1, 1,21, 0, 7, 0.00,60.00,WinterDesignDay
543,10.390424025192419
583,19.97282440629794
623,19.998030003174308
663,19.999112093477057
703,19.980170930154185
743,19.998573341547084
2,1, 1,21, 0, 8, 0.00,10.00,WinterDesignDay
8,-40.50000009296249
10,23782236.569855617
2,1, 1,21, 0, 8,10.00,20.00,WinterDesignDay
8,-40.50000009296249
10,20418685.64090381
2,1, 1,21, 0, 8,20.00,30.00,WinterDesignDay
8,-40.50000009296249
10,23953146.80498999
2,1, 1,21, 0, 8,30.00,40.00,WinterDesignDay
8,-40.50000009296249
10,23191743.329135617
2,1, 1,21, 0, 8,40.00,50.00,WinterDesignDay
8,-40.50000009296249
10,22374471.674430685
2,1, 1,21, 0, 8,50.00,60.00,WinterDesignDay
8,-40.50000009296249
10,22609957.489125387
2,1, 1,21, 0, 8, 0.00,60.00,WinterDesignDay
543,10.334992440818544
583,21.968597132097888
623,21.99009829850471
663,21.994505288136183
703,21.974996136028378
743,21.99593445422981
2,1, 1,21, 0, 9, 0.00,10.00,WinterDesignDay
8,-40.50000009296249
10,24047289.274647833
2,1, 1,21, 0, 9,10.00,20.00,WinterDesignDay
8,-40.50000009296249
10,23622535.442371835
2,1, 1,21, 0, 9,20.00,30.00,WinterDesignDay
8,-40.50000009296249
10,23380792.0638243
2,1, 1,21, 0, 9,30.00,40.00,WinterDesignDay
8,-40.50000009296249
10,23180707.189299525
2,1, 1,21, 0, 9,40.00,50.00,WinterDesignDay
8,-40.50000009296249
10,23014395.889730786
2,1, 1,21, 0, 9,50.00,60.00,WinterDesignDay
8,-40.50000009296249
10,22871514.858923157
2,1, 1,21, 0, 9, 0.00,60.00,WinterDesignDay
543,10.425260977399248
583,22.000282328483825
623,22.000335650347784
663,22.00031518734112
703,22.000473193403125
743,22.000304417497035
2,1, 1,21, 0,10, 0.00,10.00,WinterDesignDay
8,-40.50000009296249
10,22946067.646367805
2,1, 1,21, 0,10,10.00,20.00,WinterDesignDay
8,-40.50000009296249
10,22902777.58818168
2,1, 1,21, 0,10,20.00,30.00,WinterDesignDay
8,-40.50000009296249
10,22784022.583239698
2,1, 1,21, 0,10,30.00,40.00,WinterDesignDay
8,-40.50000009296249
10,22677937.852223915
2,1, 1,21, 0,10,40.00,50.00,WinterDesignDay
8,-40.50000009296249
10,22508599.735909929
2,1, 1,21, 0,10,50.00,60.00,WinterDesignDay
8,-40.50000009296249
10,22324867.14084387
2,1, 1,21, 0,10, 0.00,60.00,WinterDesignDay
543,10.614920051711316
583,22.000419225072379
623,22.000505405935117
663,22.000465672283654
703,22.000782069161699
743,22.000446817352118
2,1, 1,21, 0,11, 0.00,10.00,WinterDesignDay
8,-40.50000009296249
10,22895628.185425436
2,1, 1,21, 0,11,10.00,20.00,WinterDesignDay
8,-40.50000009296249
10,22724955.131420826
2,1, 1,21, 0,11,20.00,30.00,WinterDesignDay
8,-40.50000009296249
10,22653780.14681414
2,1, 1,21, 0,11,30.00,40.00,WinterDesignDay
8,-40.50000009296249
10,22586554.76344646
2,1, 1,21, 0,11,40.00,50.00,WinterDesignDay
8,-40.50000009296249
10,22521961.876164508
2,1, 1,21, 0,11,50.00,60.00,WinterDesignDay
8,-40.50000009296249
10,22459439.714749386
2,1, 1,21, 0,11, 0.00,60.00,WinterDesignDay
543,10.82451463270385
583,22.000498250792615
623,22.00062503816672
663,22.000569774518384
703,22.001008889013084
743,22.000544436712408
2,1, 1,21, 0,12, 0.00,10.00,WinterDesignDay
8,-40.50000009296249
10,22398723.006843047
2,1, 1,21, 0,12,10.00,20.00,WinterDesignDay
8,-40.50000009296249
10,22339607.521702853
2,1, 1,21, 0,12,20.00,30.00,WinterDesignDay
8,-40.50000009296249
10,22281932.604076268
2,1, 1,21, 0,12,30.00,40.00,WinterDesignDay
8,-40.50000009296249
10,22225573.224539985
2,1, 1,21, 0,12,40.00,50.00,WinterDesignDay
8,-40.50000009296249
10,22170432.2645243
2,1, 1,21, 0,12,50.00,60.00,WinterDesignDay
8,-40.50000009296249
10,22116433.61126153
2,1, 1,21, 0,12, 0.00,60.00,WinterDesignDay
543,11.023189434458907
583,22.000557182265298
623,22.000723135400127
663,22.000654527834248
703,22.001202893036859
743,22.000623599310218
2,1, 1,21, 0,13, 0.00,10.00,WinterDesignDay
8,-40.50000009296249
10,22427300.49929866
2,1, 1,21, 0,13,10.00,20.00,WinterDesignDay
8,-40.50000009296249
10,22387812.535045994
2,1, 1,21, 0,13,20.00,30.00,WinterDesignDay
8,-40.50000009296249
10,22344396.40996001
2,1, 1,21, 0,13,30.00,40.00,WinterDesignDay
8,-40.50000009296249
10,22300222.30750743
2,1, 1,21, 0,13,40.00,50.00,WinterDesignDay
8,-40.50000009296249
10,22255878.23401838
2,1, 1,21, 0,13,50.00,60.00,WinterDesignDay
8,-40.50000009296249
10,22211586.152332978
2,1, 1,21, 0,13, 0.00,60.00,WinterDesignDay
543,11.20371293465353
583,22.000616059770107
623,22.000723400107547
663,22.000647236650634
703,22.00125883727587
743,22.000613776688366
2,1, 1,21, 0,14, 0.00,10.00,WinterDesignDay
8,-40.50000009296249
10,22167528.844912463
2,1, 1,21, 0,14,10.00,20.00,WinterDesignDay
8,-40.50000009296249
10,22123845.643770279
2,1, 1,21, 0,14,20.00,30.00,WinterDesignDay
8,-40.50000009296249
10,22080632.45431152
2,1, 1,21, 0,14,30.00,40.00,WinterDesignDay
8,-40.50000009296249
10,22037957.049031315
2,1, 1,21, 0,14,40.00,50.00,WinterDesignDay
8,-40.50000009296249
10,21995866.577141998
2,1, 1,21, 0,14,50.00,60.00,WinterDesignDay
8,-40.50000009296249
10,21954393.249750329
2,1, 1,21, 0,14, 0.00,60.00,WinterDesignDay
543,11.363838342600822
583,22.00056355607592
623,22.000699712046669
663,22.000625197116049
703,22.001218813497386
743,22.00059244832401
2,1, 1,21, 0,15, 0.00,10.00,WinterDesignDay
8,-40.50000009296249
10,21550079.776284685
2,1, 1,21, 0,15,10.00,20.00,WinterDesignDay
8,-40.50000009296249
10,21497636.450077259
2,1, 1,21, 0,15,20.00,30.00,WinterDesignDay
8,-40.50000009296249
10,21450721.234695354
2,1, 1,21, 0,15,30.00,40.00,WinterDesignDay
8,-40.50000009296249
10,21406154.944631258
2,1, 1,21, 0,15,40.00,50.00,WinterDesignDay
8,-40.50000009296249
10,21363365.27485996
2,1, 1,21, 0,15,50.00,60.00,WinterDesignDay
8,-40.50000009296249
10,21322065.395971765
2,1, 1,21, 0,15, 0.00,60.00,WinterDesignDay
543,11.508744582454272