Program Version,EnergyPlus, Version 9.1.0-fafb9d5652, YMD=2019.10.17 17:26
1,5,Environment Title[],Latitude[deg],Longitude[deg],Time Zone[],Elevation[m]
2,8,Day of Simulation[],Month[],Day of Month[],DST Indicator[1=yes 0=no],Hour[],StartMinute[],EndMinute[],DayType
3,5,Cumulative Day of Simulation[],Month[],Day of Month[],DST Indicator[1=yes 0=no],DayType  ! When Daily Report Variables Requested
4,2,Cumulative Days of Simulation[],Month[]  ! When Monthly Report Variables Requested
5,1,Cumulative Days of Simulation[] ! When Run Period Report Variables Requested
6,1,Calendar Year of Simulation[] ! When Annual Report Variables Requested
7,9,Environment,Site Outdoor Air Drybulb Temperature [C] !Monthly [Value,Min,Day,Hour,Minute,Max,Day,Hour,Minute]
8,1,Environment,Site Outdoor Air Wetbulb Temperature [C] !TimeStep
1003,1,STORY 1 EAST CORE SPACE ZN,Zone Air Temperature [C] !Hourly
1004,7,STORY 1 EAST CORE SPACE ZN,Zone Air Relative Humidity [%] !Daily [Value,Min,Hour,Minute,Max,Hour,Minute]
1043,1,STORY 1 EAST LEFT PERIMETER SPACE ZN,Zone Air Temperature [C] !Hourly
1044,7,STORY 1 EAST LEFT PERIMETER SPACE ZN,Zone Air Relative Humidity [%] !Daily [Value,Min,Hour,Minute,Max,Hour,Minute]
1083,1,STORY 1 EAST RIGHT PERIMETER SPACE ZN,Zone Air Temperature [C] !Hourly
1084,7,STORY 1 EAST RIGHT PERIMETER SPACE ZN,Zone Air Relative Humidity [%] !Daily [Value,Min,Hour,Minute,Max,Hour,Minute]
1123,1,STORY 1 NORTH LEFT PERIMETER SPACE ZN,Zone Air Temperature [C] !Hourly
1124,7,STORY 1 NORTH LEFT PERIMETER SPACE ZN,Zone Air Relative Humidity [%] !Daily [Value,Min,Hour,Minute,Max,Hour,Minute]
1163,1,STORY 1 NORTH LOWER PERIMETER SPACE ZN,Zone Air Temperature [C] !Hourly
1164,7,STORY 1 NORTH LOWER PERIMETER SPACE ZN,Zone Air Relative Humidity [%] !Daily [Value,Min,Hour,Minute,Max,Hour,Minute]
1203,1,STORY 1 NORTH RIGHT PERIMETER SPACE ZN,Zone Air Temperature [C] !Hourly
1204,7,STORY 1 NORTH RIGHT PERIMETER SPACE ZN,Zone Air Relative Humidity [%] !Daily [Value,Min,Hour,Minute,Max,Hour,Minute]
1243,1,STORY 1 SOUTH CORE SPACE ZN,Zone Air Temperature [C] !Hourly
1244,7,STORY 1 SOUTH CORE SPACE ZN,Zone Air Relative Humidity [%] !Daily [Value,Min,Hour,Minute,Max,Hour,Minute]
1283,1,STORY 1 SOUTH LOWER PERIMETER SPACE ZN,Zone Air Temperature [C] !Hourly
1284,7,STORY 1 SOUTH LOWER PERIMETER SPACE ZN,Zone Air Relative Humidity [%] !Daily [Value,Min,Hour,Minute,Max,Hour,Minute]
1323,1,STORY 1 WEST CORE SPACE ZN,Zone Air Temperature [C] !Hourly
1324,7,STORY 1 WEST CORE SPACE ZN,Zone Air Relative Humidity [%] !Daily [Value,Min,Hour,Minute,Max,Hour,Minute]
1363,1,STORY 1 WEST LEFT PERIMETER SPACE ZN,Zone Air Temperature [C] !Hourly
1364,7,STORY 1 WEST LEFT PERIMETER SPACE ZN,Zone Air Relative Humidity [%] !Daily [Value,Min,Hour,Minute,Max,Hour,Minute]
1403,1,STORY 1 WEST RIGHT PERIMETER SPACE ZN,Zone Air Temperature [C] !Hourly
1404,7,STORY 1 WEST RIGHT PERIMETER SPACE ZN,Zone Air Relative Humidity [%] !Daily [Value,Min,Hour,Minute,Max,Hour,Minute]
1443,1,STORY 2 EAST CORE SPACE ZN,Zone Air Temperature [C] !Hourly
1444,7,STORY 2 EAST CORE SPACE ZN,Zone Air Relative Humidity [%] !Daily [Value,Min,Hour,Minute,Max,Hour,Minute]
1483,1,STORY 2 EAST LEFT PERIMETER SPACE ZN,Zone Air Temperature [C] !Hourly
1484,7,STORY 2 EAST LEFT PERIMETER SPACE ZN,Zone Air Relative Humidity [%] !Daily [Value,Min,Hour,Minute,Max,Hour,Minute]
1523,1,STORY 2 EAST RIGHT PERIMETER SPACE ZN,Zone Air Temperature [C] !Hourly
1524,7,STORY 2 EAST RIGHT PERIMETER SPACE ZN,Zone Air Relative Humidity [%] !Daily [Value,Min,Hour,Minute,Max,Hour,Minute]
1563,1,STORY 2 NORTH LEFT PERIMETER SPACE ZN,Zone Air Temperature [C] !Hourly
1564,7,STORY 2 NORTH LEFT PERIMETER SPACE ZN,Zone Air Relative Humidity [%] !Daily [Value,Min,Hour,Minute,Max,Hour,Minute]
1603,1,STORY 2 NORTH LOWER PERIMETER SPACE ZN,Zone Air Temperature [C] !Hourly
1604,7,STORY 2 NORTH LOWER PERIMETER SPACE ZN,Zone Air Relative Humidity [%] !Daily [Value,Min,Hour,Minute,Max,Hour,Minute]
1643,1,STORY 2 NORTH RIGHT PERIMETER SPACE ZN,Zone Air Temperature [C] !Hourly
1644,7,STORY 2 NORTH RIGHT PERIMETER SPACE ZN,Zone Air Relative Humidity [%] !Daily [Value,Min,Hour,Minute,Max,Hour,Minute]
1683,1,STORY 2 SOUTH CORE SPACE ZN,Zone Air Temperature [C] !Hourly
1684,7,STORY 2 SOUTH CORE SPACE ZN,Zone Air Relative Humidity [%] !Daily [Value,Min,Hour,Minute,Max,Hour,Minute]
1723,1,STORY 2 SOUTH LOWER PERIMETER SPACE ZN,Zone Air Temperature [C] !Hourly
1724,7,STORY 2 SOUTH LOWER PERIMETER SPACE ZN,Zone Air Relative Humidity [%] !Daily [Value,Min,Hour,Minute,Max,Hour,Minute]
1763,1,STORY 2 WEST CORE SPACE ZN,Zone Air Temperature [C] !Hourly
1764,7,STORY 2 WEST CORE SPACE ZN,Zone Air Relative Humidity [%] !Daily [Value,Min,Hour,Minute,Max,Hour,Minute]
1803,1,STORY 2 WEST LEFT PERIMETER SPACE ZN,Zone Air Temperature [C] !Hourly
1804,7,STORY 2 WEST LEFT PERIMETER SPACE ZN,Zone Air Relative Humidity [%] !Daily [Value,Min,Hour,Minute,Max,Hour,Minute]
1843,1,STORY 2 WEST RIGHT PERIMETER SPACE ZN,Zone Air Temperature [C] !Hourly
1844,7,STORY 2 WEST RIGHT PERIMETER SPACE ZN,Zone Air Relative Humidity [%] !Daily [Value,Min,Hour,Minute,Max,Hour,Minute]
10,1,Electricity:Facility [J] !TimeStep
1994,1,DistrictCooling:Facility [J] !TimeStep
1957,1,DistrictHeating:Facility [J] !TimeStep
End of Data Dictionary
1,OTTAWA=MACDONALD-CARTIER INTL ANN CLG .4% CONDNS DB=>MWB,  45.32, -75.67,  -5.00, 114.90
2,1, 7,21, 0, 1, 0.00,10.00,SummerDesignDay
8,19.2840458690032
10,23106497.41420298
1957,0.0
1994,0.0
2,1, 7,21, 0, 1,10.00,20.00,SummerDesignDay
8,19.25220058801155
10,23106497.41420298
1957,0.0
1994,0.0
2,1, 7,21, 0, 1,20.00,30.00,SummerDesignDay
8,19.2203165671003
10,23106497.41420298
1957,0.0
1994,0.0
2,1, 7,21, 0, 1,30.00,40.00,SummerDesignDay
8,19.188388626363016
10,23106497.41420298
1957,0.0
1994,0.0
2,1, 7,21, 0, 1,40.00,50.00,SummerDesignDay
8,19.15642770709394
10,23106497.41420298
1957,0.0
1994,0.0
2,1, 7,21, 0, 1,50.00,60.00,SummerDesignDay
8,19.124427397166604
10,23106497.41420298
1957,0.0
1994,0.0
2,1, 7,21, 0, 1, 0.00,60.00,SummerDesignDay
1003,25.048018013161494
1043,25.36027030604251
1083,25.367339985380516
1123,24.89657412499585
1163,24.776302440722604
1203,24.881256308412035
1243,24.898870345362317
1283,25.17018398502105
1323,25.085772977723523
1363,26.707499791222309
1403,26.593105276205934
1443,24.906309259439138
1483,25.104965972800174
1523,25.10352071560627
1563,24.7347745046014
1603,24.6682159902538
1643,24.71962004113709
1683,24.785176015529819
1723,24.942515339688069
1763,24.937150307766115
1803,25.95359258192352
1843,25.879235273205127
2,1, 7,21, 0, 2, 0.00,10.00,SummerDesignDay
8,19.103070457286994
10,23106497.41420298
1957,0.0
1994,0.0
2,1, 7,21, 0, 2,10.00,20.00,SummerDesignDay
8,19.08170119193842
10,23106497.41420298
1957,0.0
1994,0.0
2,1, 7,21, 0, 2,20.00,30.00,SummerDesignDay
8,19.06030939273045
10,23106497.41420298
1957,0.0
1994,0.0
2,1, 7,21, 0, 2,30.00,40.00,SummerDesignDay
8,19.03890076386851
10,23106497.41420298
1957,0.0
1994,0.0
2,1, 7,21, 0, 2,40.00,50.00,SummerDesignDay
8,19.01747444558601
10,23106497.41420298
1957,0.0
1994,0.0
2,1, 7,21, 0, 2,50.00,60.00,SummerDesignDay
8,18.996036037989819
10,23106497.41420298
1957,0.0
1994,0.0
2,1, 7,21, 0, 2, 0.00,60.00,SummerDesignDay
1003,24.839182865528369
1043,25.09956844528706
1083,25.096957719958544
1123,24.658147881979116
1163,24.55922738292216
1203,24.641692067293734
1243,24.694717425444194
1283,24.90641742234405
1323,24.876945354296216
1363,26.306584225679413
1403,26.206217563770925
1443,24.649760487955694
1483,24.818545468858376
1523,24.809736409090566
1563,24.462743201132338
1603,24.409264415804374
1643,24.446049283580356
1683,24.529734522562778
1723,24.65076130772987
1763,24.681472862115226
1803,25.592664914294713
1843,25.526034742835905
2,1, 7,21, 0, 3, 0.00,10.00,SummerDesignDay
8,18.97994058577143
10,23106497.41420298
1957,0.0
1994,0.0
2,1, 7,21, 0, 3,10.00,20.00,SummerDesignDay
8,18.96383509390068
10,23106497.41420298
1957,0.0
1994,0.0
2,1, 7,21, 0, 3,20.00,30.00,SummerDesignDay
8,18.947724870466826
10,23106497.41420298
1957,0.0
1994,0.0
2,1, 7,21, 0, 3,30.00,40.00,SummerDesignDay
8,18.931599991201066
10,23106497.41420298
1957,0.0
1994,0.0
2,1, 7,21, 0, 3,40.00,50.00,SummerDesignDay
8,18.915470425479847
10,23106497.41420298
1957,0.0
1994,0.0
2,1, 7,21, 0, 3,50.00,60.00,SummerDesignDay
8,18.8993255989201
10,23106497.41420298
1957,0.0
1994,0.0
2,1, 7,21, 0, 3, 0.00,60.00,SummerDesignDay
1003,24.660845880952694
1043,24.859769009486766
1083,24.84863825988126
1123,24.438649461476819
1163,24.36079519586519
1203,24.421389897527609
1243,24.522275393181635
1283,24.665756641108016
1323,24.698204592819555
1363,25.94132372978035
1403,25.854837385045064
1443,24.434554294751519
1483,24.547916306175727
1523,24.53301730216202
1563,24.206871784673024
1603,24.16687067429801
1643,24.189187007765129
1683,24.31766456368709
1723,24.37854209598026
1763,24.46635804240667
1803,25.250934779705504
1843,25.19187117230055
2,1, 7,21, 0, 4, 0.00,10.00,SummerDesignDay
8,18.883176400800605
10,23106497.41420298
1957,0.0
1994,0.0
2,1, 7,21, 0, 4,10.00,20.00,SummerDesignDay
8,18.867011710849643
10,23106497.41420298
1957,0.0
1994,0.0
2,1, 7,21, 0, 4,20.00,30.00,SummerDesignDay
8,18.850837592647797
10,23106497.41420298
1957,0.0
1994,0.0
2,1, 7,21, 0, 4,30.00,40.00,SummerDesignDay
8,18.834658360362007
10,23106497.41420298
1957,0.0
1994,0.0
2,1, 7,21, 0, 4,40.00,50.00,SummerDesignDay
8,18.8184648850153
10,23106497.41420298
1957,0.0
1994,0.0
2,1, 7,21, 0, 4,50.00,60.00,SummerDesignDay
8,18.8022655410338
10,23106497.41420298
1957,0.0
1994,0.0
2,1, 7,21, 0, 4, 0.00,60.00,SummerDesignDay
1003,24.49668058180826
1043,24.632789297619909
1083,24.61401407608955
1123,24.22998093424061
1163,24.172357906398618
1203,24.21211263855795
1243,24.364358272172436
1283,24.438921776242883
1323,24.533483301271983
1363,25.60317437238538
1403,25.528592579428034
1443,24.241477232678986
1483,24.29264207684751
1523,24.272632008520906
1563,23.965234640450743
1603,23.9388915879028
1643,23.946947023445444
1683,24.12878707397046
1723,24.1237512652477
1763,24.27299886577474
1803,24.929382083703336
1843,24.877488945180564
2,1, 7,21, 0, 5, 0.00,10.00,SummerDesignDay
8,18.79145567867417
10,23106497.41420298
1957,0.0
1994,0.0
2,1, 7,21, 0, 5,10.00,20.00,SummerDesignDay
8,18.780646332866213
10,23106497.41420298
1957,0.0
1994,0.0
2,1, 7,21, 0, 5,20.00,30.00,SummerDesignDay
8,18.76983296444122
10,23106497.41420298
1957,0.0
1994,0.0
2,1, 7,21, 0, 5,30.00,40.00,SummerDesignDay
8,18.75901007085189
10,23106497.41420298
1957,0.0
1994,0.0
2,1, 7,21, 0, 5,40.00,50.00,SummerDesignDay
8,18.7481869937485
10,23106497.41420298
1957,0.0
1994,0.0
2,1, 7,21, 0, 5,50.00,60.00,SummerDesignDay
8,18.737365749092537
10,23106497.41420298
1957,0.0
1994,0.0
2,1, 7,21, 0, 5, 0.00,60.00,SummerDesignDay
1003,24.346006974947245
1043,24.48379142942638
1083,24.6288308882181
1123,24.123452708465256
1163,24.010092172768908
1203,24.105352661701159
1243,24.21945316502132
1283,24.246131096292346
1323,24.38187502004342
1363,25.312450786305147
1403,25.246644263361835
1443,24.074923157430886
1483,24.204733896504398
1523,24.288965711690606
1563,23.853734827008485
1603,23.758726389109048
1643,23.835323089342258
1683,23.96570737382621
1723,23.917681150951073
1763,24.10547747153518
1803,24.662471493786396
1843,24.61620346708722
2,1, 7,21, 0, 6, 0.00,10.00,SummerDesignDay
8,18.7481869937485
10,23106497.41420298
1957,0.0
1994,0.0
2,1, 7,21, 0, 6,10.00,20.00,SummerDesignDay
8,18.75901007085189
10,23106497.41420298
1957,0.0
1994,0.0
2,1, 7,21, 0, 6,20.00,30.00,SummerDesignDay
8,18.76983296444122
10,23106497.41420298
1957,0.0
1994,0.0
2,1, 7,21, 0, 6,30.00,40.00,SummerDesignDay
8,18.780646332866213
10,23106497.41420298
1957,0.0
1994,0.0
2,1, 7,21, 0, 6,40.00,50.00,SummerDesignDay
8,18.79145567867417
10,23106497.41420298
1957,0.0
1994,0.0
2,1, 7,21, 0, 6,50.00,60.00,SummerDesignDay
8,18.8022655410338
10,23106497.41420298
1957,0.0
1994,0.0
2,1, 7,21, 0, 6, 0.00,60.00,SummerDesignDay
1003,24.298562725804179
1043,27.940720520168317
1083,29.58456123861445
1123,25.097218252941955
1163,24.11145909794391
1203,25.0938181783974
1243,24.13535389641476
1283,24.310397751586668
1323,24.307950176437897
1363,25.28171092964807
1403,25.200722627220107
1443,24.160953039817703
1483,29.08470972126733
1523,29.33673380032725
1563,24.952984341580366
1603,24.37340216402821
1643,24.94009646361992
1683,23.98199553623998
1723,24.117801894606108
1763,24.16518616557731
1803,24.804752230267913
1843,24.755028845934988
2,1, 7,21, 0, 7, 0.00,10.00,SummerDesignDay
8,18.840052605786814
10,23106497.41420298
1957,0.0
1994,194165763.0029506
2,1, 7,21, 0, 7,10.00,20.00,SummerDesignDay
8,18.87778619489805
10,23106497.41420298
1957,0.0
1994,58078216.68823668
2,1, 7,21, 0, 7,20.00,30.00,SummerDesignDay
8,18.915470425479847
10,23106497.41420298
1957,0.0
1994,123926796.18055535
2,1, 7,21, 0, 7,30.00,40.00,SummerDesignDay
8,18.953096118062495
10,23106497.41420298
1957,0.0
1994,122326749.49611736
2,1, 7,21, 0, 7,40.00,50.00,SummerDesignDay
8,18.99066883495391
10,23106497.41420298
1957,0.0
1994,127807225.44587729
2,1, 7,21, 0, 7,50.00,60.00,SummerDesignDay
8,19.02819215483863
10,23106497.41420298
1957,0.0
1994,133832403.7733629
2,1, 7,21, 0, 7, 0.00,60.00,SummerDesignDay
1003,23.92412607491593
1043,24.038406413286695
1083,24.04552911641275
1123,23.980116892452384
1163,23.99524677004723
1203,23.980099573831067
1243,23.95335319092952
1283,23.991260927798405
1323,23.91455410950122
1363,23.97585355682757
1403,23.9759590897731
1443,23.9859036399323
1483,24.04344705554924
1523,24.045730168907715
1563,23.983788215877785
1603,23.989225109323049
1643,23.983904978378658
1683,23.999172330964475
1723,23.99525953053518
1763,23.983656078567877
1803,23.985124090934833
1843,23.98571498601051
2,1, 7,21, 0, 8, 0.00,10.00,SummerDesignDay
8,19.119090922986229
10,57609547.33340686
1957,0.0
1994,177671653.34455998
2,1, 7,21, 0, 8,10.00,20.00,SummerDesignDay
8,19.209676482065853
10,57609547.33340686
1957,0.0
1994,188371341.7713888
2,1, 7,21, 0, 8,20.00,30.00,SummerDesignDay
8,19.299951906634847
10,57609547.33340686
1957,0.0
1994,196396394.28766103
2,1, 7,21, 0, 8,30.00,40.00,SummerDesignDay
8,19.389928824990219
10,57609547.33340686
1957,0.0
1994,204230698.9794549
2,1, 7,21, 0, 8,40.00,50.00,SummerDesignDay
8,19.4795823892733
10,57609547.33340686
1957,0.0
1994,211731051.32734043
2,1, 7,21, 0, 8,50.00,60.00,SummerDesignDay
8,19.568935475929295
10,57609547.33340686
1957,0.0
1994,218819576.83718247
2,1, 7,21, 0, 8, 0.00,60.00,SummerDesignDay
1003,23.999999983536886
1043,24.000000000000069
1083,24.000000000000285
1123,24.000000000000019
1163,24.00000000000001
1203,24.00000000000004
1243,23.999999902000778
1283,24.000000000000019
1323,23.99999997390347
1363,24.00000000000003
1403,24.000000000000019
1443,23.99999999974143
1483,24.00000000000001
1523,24.00000000000028
1563,23.99999999999999
1603,24.000000000000015
1643,24.00000000000004
1683,24.00000000000001
1723,24.00000000000001
1763,23.999999999664089
1803,24.00000000000003
1843,24.00000000000003
2,1, 7,21, 0, 9, 0.00,10.00,SummerDesignDay
8,19.66844507688812
10,153625459.5557517
1957,0.0
1994,328172426.2739263
2,1, 7,21, 0, 9,10.00,20.00,SummerDesignDay
8,19.767573179707669
10,153625459.5557517
1957,0.0
1994,341410524.9516279
2,1, 7,21, 0, 9,20.00,30.00,SummerDesignDay
8,19.866330746445795
10,153625459.5557517
1957,0.0
1994,348473706.65694716
2,1, 7,21, 0, 9,30.00,40.00,SummerDesignDay
8,19.964711871061558
10,153625459.5557517
1957,0.0
1994,355977855.6198598
2,1, 7,21, 0, 9,40.00,50.00,SummerDesignDay
8,20.062727728864816
10,153625459.5557517
1957,0.0
1994,362483960.6203366
2,1, 7,21, 0, 9,50.00,60.00,SummerDesignDay
8,20.160375627757714
10,153625459.5557517
1957,0.0
1994,368686311.66515979
2,1, 7,21, 0, 9, 0.00,60.00,SummerDesignDay
1003,24.00000000000004
1043,24.00000000000016
1083,24.0000000000002
1123,24.000000000000044
1163,24.0
1203,24.000000000000058
1243,24.000000000000015
1283,24.000000000000019
1323,24.000000000000015
1363,24.0
1403,24.000000000000015
1443,24.000000000000044
1483,23.99999999999996
1523,24.000000000000296
1563,24.000000000000015
1603,24.00000000000003
1643,24.000000000000069
1683,23.999999999999987
1723,24.000000000000044
1763,24.000000000000033
1803,24.000000000000044
1843,24.00000000000006
2,1, 7,21, 0,10, 0.00,10.00,SummerDesignDay
8,20.247432286023
10,172828642.0002206
1957,0.0
1994,395667721.1406693
2,1, 7,21, 0,10,10.00,20.00,SummerDesignDay
8,20.334198251055687
10,172828642.0002206
1957,0.0
1994,401807166.895051
2,1, 7,21, 0,10,20.00,30.00,SummerDesignDay
8,20.420674889330156
10,172828642.0002206
1957,0.0
1994,406091418.6099014
2,1, 7,21, 0,10,30.00,40.00,SummerDesignDay
8,20.50686410461129
10,172828642.0002206
1957,0.0
1994,409871919.0173819
2,1, 7,21, 0,10,40.00,50.00,SummerDesignDay
8,20.59277197915242
10,172828642.0002206
1957,0.0
1994,413089928.02588817
2,1, 7,21, 0,10,50.00,60.00,SummerDesignDay
8,20.67839100058158
10,172828642.0002206
1957,0.0
1994,415550809.4655107
2,1, 7,21, 0,10, 0.00,60.00,SummerDesignDay
1003,24.0
1043,24.0000000000001
1083,23.999999999999934
1123,24.000000000000026
1163,23.999999999999984
1203,24.00000000000004
1243,24.000000000000019
1283,24.000000000000055
1323,24.000000000000019
1363,24.000000000000019
1403,23.999999999999944
1443,24.000000000000019
1483,24.000000000000147
1523,23.999999999999987
1563,24.000000000000115
1603,24.00000000000004
1643,24.00000000000001
1683,24.000000000000033
1723,24.000000000000069
1763,24.000000000000033
1803,24.0
1843,24.000000000000115
2,1, 7,21, 0,11, 0.00,10.00,SummerDesignDay
8,20.75370382828009
10,172828642.0002206
1957,0.0
1994,417385425.0868067
2,1, 7,21, 0,11,10.00,20.00,SummerDesignDay
8,20.82879725584293
10,172828642.0002206
1957,0.0
1994,419246018.11855939
2,1, 7,21, 0,11,20.00,30.00,SummerDesignDay
8,20.90366855164364
10,172828642.0002206
1957,0.0
1994,421252739.2469273
2,1, 7,21, 0,11,30.00,40.00,SummerDesignDay
8,20.978327197140595
10,172828642.0002206
1957,0.0
1994,422986305.0574281
2,1, 7,21, 0,11,40.00,50.00,SummerDesignDay
8,21.052770435649987
10,172828642.0002206
1957,0.0
1994,423390832.6957953
2,1, 7,21, 0,11,50.00,60.00,SummerDesignDay
8,21.126998315025806
10,172828642.0002206
1957,0.0
1994,423994062.13797578
2,1, 7,21, 0,11, 0.00,60.00,SummerDesignDay
1003,24.000000000000005
1043,24.00000000000003
1083,23.999999999999955
1123,23.999999999999984
1163,24.000000000000026
1203,24.0
1243,24.000000000000026
1283,24.00000000000004
1323,23.99999999999999
1363,24.00000000000003
1403,24.000000000000019
1443,23.999999999999984
1483,23.999999999999987
1523,24.000000000000005
1563,24.00000000000008
1603,23.999999999999948
1643,24.000000000000058
1683,24.000000000000015
1723,24.000000000000069
1763,24.00000000000004
1803,24.000000000000033
1843,24.000000000000119
2,1, 7,21, 0,12, 0.00,10.00,SummerDesignDay
8,21.176364764512436
10,172828642.0002206
1957,0.0
1994,423997013.7852858
2,1, 7,21, 0,12,10.00,20.00,SummerDesignDay
8,21.225636252128049
10,172828642.0002206
1957,0.0
1994,424514042.9506333
2,1, 7,21, 0,12,20.00,30.00,SummerDesignDay
8,21.27481408813442
10,172828642.0002206
1957,0.0
1994,425789632.02522888
2,1, 7,21, 0,12,30.00,40.00,SummerDesignDay
8,21.32389714161367
10,172828642.0002206
1957,0.0
1994,427571435.17139098
2,1, 7,21, 0,12,40.00,50.00,SummerDesignDay
8,21.372882039030619
10,172828642.0002206
1957,0.0
1994,429579853.6613637
2,1, 7,21, 0,12,50.00,60.00,SummerDesignDay
8,21.421778222706306
10,172828642.0002206
1957,0.0
1994,431622885.2466833
2,1, 7,21, 0,12, 0.00,60.00,SummerDesignDay
1003,24.00000000000001
1043,24.000000000000033
1083,24.000000000000033
1123,24.00000000000006
1163,24.000000000000044
1203,24.000000000000019
1243,24.000000000000019
1283,24.000000000000143
1323,24.0
1363,24.000000000000026
1403,24.000000000000069
1443,24.000000000000005
1483,23.999999999999905
1523,24.000000000000044
1563,24.000000000000104
1603,24.0000000000001
1643,23.999999999999969
1683,24.000000000000058
1723,23.99999999999999
1763,23.99999999999996
1803,24.000000000000104
1843,24.000000000000087
2,1, 7,21, 0,13, 0.00,10.00,SummerDesignDay
8,21.460829759656176
10,172828642.0002206
1957,0.0
1994,419989418.30333116
2,1, 7,21, 0,13,10.00,20.00,SummerDesignDay
8,21.499817003159384
10,172828642.0002206
1957,0.0
1994,420745403.5379907
2,1, 7,21, 0,13,20.00,30.00,SummerDesignDay
8,21.53875017563149
10,172828642.0002206
1957,0.0
1994,421698284.65995427
2,1, 7,21, 0,13,30.00,40.00,SummerDesignDay
8,21.57761871831439
10,172828642.0002206
1957,0.0
1994,422868162.7314629
2,1, 7,21, 0,13,40.00,50.00,SummerDesignDay
8,21.616433450967234
10,172828642.0002206
1957,0.0
1994,424378803.92855259
2,1, 7,21, 0,13,50.00,60.00,SummerDesignDay
8,21.655184624488759
10,172828642.0002206
1957,0.0
1994,426245839.35916236
2,1, 7,21, 0,13, 0.00,60.00,SummerDesignDay
1003,24.0
1043,24.000000000000097
1083,24.00000000000016
1123,24.000000000000069
1163,24.000000000000026
1203,24.000000000000026
1243,24.000000000000019
1283,24.000000000000076
1323,24.00000000000003
1363,24.000000000000047
1403,24.00000000000003
1443,23.99999999999996
1483,24.00000000000008
1523,24.000000000000126
1563,24.000000000000076
1603,24.000000000000115
1643,24.000000000000097
1683,24.000000000000019
1723,24.000000000000129
1763,24.000000000000055
1803,24.000000000000076
1843,24.000000000000058
2,1, 7,21, 0,14, 0.00,10.00,SummerDesignDay
8,21.67937576104208
10,172828642.0002206
1957,0.0
1994,428010303.2619997
2,1, 7,21, 0,14,10.00,20.00,SummerDesignDay
8,21.703544513972305
10,172828642.0002206
1957,0.0
1994,430216924.5534753
2,1, 7,21, 0,14,20.00,30.00,SummerDesignDay
8,21.727690125397957
10,172828642.0002206
1957,0.0
1994,432904314.1715745
2,1, 7,21, 0,14,30.00,40.00,SummerDesignDay
8,21.751812391480358
10,172828642.0002206
1957,0.0
1994,436086348.7070666
2,1, 7,21, 0,14,40.00,50.00,SummerDesignDay
8,21.7759121945202
10,172828642.0002206
1957,0.0
1994,439721148.576882
2,1, 7,21, 0,14,50.00,60.00,SummerDesignDay
8,21.799989308895414
10,172828642.0002206
1957,0.0
1994,443732027.11624637
2,1, 7,21, 0,14, 0.00,60.00,SummerDesignDay
1003,24.00000000000001
1043,23.999999999999984
1083,23.999999999999984
1123,24.000000000000005
1163,24.000000000000019
1203,24.0
1243,24.0
1283,24.0000000000001
1323,24.00000000000001
1363,24.00000000000001
1403,24.000000000000076
1443,24.000000000000033
1483,24.00000000000001
1523,24.000000000000076
1563,24.00000000000003
1603,24.000000000000069
1643,24.000000000000154
1683,24.0
1723,24.0
1763,24.00000000000003
1803,24.000000000000076
1843,24.00000000000006
2,1, 7,21, 0,15, 0.00,10.00,SummerDesignDay
8,21.799989308895414
10,172828642.0002206
1957,0.0
1994,460398989.1601555
2,1, 7,21, 0,15,10.00,20.00,SummerDesignDay
8,21.799989308895414
10,172828642.0002206
1957,0.0
1994,465599807.9277481
2,1, 7,21, 0,15,20.00,30.00,SummerDesignDay
8,21.799989308895414
10,172828642.0002206
1957,0.0
1994,470538623.3002924
2,1, 7,21, 0,15,30.00,40.00,SummerDesignDay
8,21.799989308895414
10,172828642.0002206
1957,0.0
1994,474840121.05435338
2,1, 7,21, 0,15,40.00,50.00,SummerDesignDay
8,21.799989308895414
10,172828642.0002206
1957,0.0
1994,478390565.96776089
2,1, 7,21, 0,15,50.00,60.00,SummerDesignDay
8,21.799989308895414
10,172828642.0002206
1957,0.0
1994,481287886.2139385
2,1, 7,21, 0,15, 0.00,60.00,SummerDesignDay
1003,24.000000000000044
1043,24.0000000000001
1083,24.00000000000006
1123,24.00000000000003
1163,24.000000000000019
1203,24.000000000000026
1243,24.000000000000033
1283,24.00000000000003
1323,24.000000000000015
1363,24.00000000000019
1403,23.999999999999944
1443,24.000000000000044
1483,24.00000000000007
1523,24.000000000000069
1563,24.000000000000047
1603,24.000000000000129
1643,24.00000000000007
1683,24.000000000000058
1723,23.99999999999996
1763,24.00000000000004
1803,24.00000000000014
1843,24.000000000000143
2,1, 7,21, 0,16, 0.00,10.00,SummerDesignDay
8,21.771094855856704
10,172828642.0002206
1957,0.0
1994,482584037.60365167
2,1, 7,21, 0,16,10.00,20.00,SummerDesignDay
8,21.742168014681356
10,172828642.0002206
1957,0.0
1994,483298594.8093816
2,1, 7,21, 0,16,20.00,30.00,SummerDesignDay
8,21.71320780280698
10,172828642.0002206
1957,0.0
1994,483459519.24704548
2,1, 7,21, 0,16,30.00,40.00,SummerDesignDay
8,21.68421463192507
10,172828642.0002206
1957,0.0
1994,483087650.78482589
2,1, 7,21, 0,16,40.00,50.00,SummerDesignDay
8,21.655184624488759
10,172828642.0002206
1957,0.0
1994,482202331.9630695
2,1, 7,21, 0,16,50.00,60.00,SummerDesignDay
8,21.6261256071541
10,172828642.0002206
1957,0.0
1994,480823391.4027552
2,1, 7,21, 0,16, 0.00,60.00,SummerDesignDay
1003,24.00000000000003
1043,24.00000000000003
1083,24.000000000000069
1123,24.000000000000019
1163,23.999999999999987
1203,24.000000000000044
1243,24.00000000000001
1283,24.0000000000001
1323,24.00000000000004
1363,24.000000000000033
1403,24.00000000000007
1443,24.0
1483,24.000000000000147
1523,24.000000000000154
1563,24.0
1603,24.000000000000119
1643,24.000000000000186
1683,24.0
1723,24.000000000000026
1763,24.00000000000004
1803,24.000000000000246
1843,24.000000000000143
2,1, 7,21, 0,17, 0.00,10.00,SummerDesignDay
8,21.587330220761357
10,172828642.0002206
1957,0.0
1994,478630590.175347
2,1, 7,21, 0,17,10.00,20.00,SummerDesignDay
8,21.548471336507889
10,172828642.0002206
1957,0.0
1994,475919731.3561431
2,1, 7,21, 0,17,20.00,30.00,SummerDesignDay
8,21.509558190151649
10,172828642.0002206
1957,0.0
1994,472785645.5523174
2,1, 7,21, 0,17,30.00,40.00,SummerDesignDay
8,21.470581299934044
10,172828642.0002206
1957,0.0
1994,469264851.1772018
2,1, 7,21, 0,17,40.00,50.00,SummerDesignDay
8,21.431549204917386
10,172828642.0002206
1957,0.0
1994,465430683.43357577
2,1, 7,21, 0,17,50.00,60.00,SummerDesignDay
8,21.392452600030727
10,172828642.0002206
1957,0.0
1994,461272744.62439879
2,1, 7,21, 0,17, 0.00,60.00,SummerDesignDay
1003,24.00000000000001
1043,24.000000000000076
1083,23.999999999999877
1123,24.0
1163,24.000000000000076
1203,23.999999999999984
1243,24.0
1283,24.000000000000087
1323,23.999999999999998
1363,23.999999999999884
1403,23.99999999999996
1443,24.000000000000047
1483,23.99999999999997
1523,24.000000000000097
1563,24.000000000000026
1603,24.000000000000044
1643,24.000000000000069
1683,24.000000000000069
1723,24.00000000000007
1763,24.000000000000019
1803,23.999999999999916
1843,23.99999999999999
2,1, 7,21, 0,18, 0.00,10.00,SummerDesignDay
8,21.343500800253975
10,162628730.35039733
1957,0.0
1994,443498511.7234838
2,1, 7,21, 0,18,10.00,20.00,SummerDesignDay
8,21.29445517999728
10,162628730.35039733
1957,0.0
1994,436945529.2751676
2,1, 7,21, 0,18,20.00,30.00,SummerDesignDay
8,21.24531961332415
10,162628730.35039733
1957,0.0
1994,430699673.1160058
2,1, 7,21, 0,18,30.00,40.00,SummerDesignDay
8,21.196085706061159
10,162628730.35039733
1957,0.0
1994,424212195.58173987
2,1, 7,21, 0,18,40.00,50.00,SummerDesignDay
8,21.146756926413827
10,162628730.35039733
1957,0.0
1994,417510281.6761401
2,1, 7,21, 0,18,50.00,60.00,SummerDesignDay
8,21.097333755216899
10,162628730.35039733
1957,0.0
1994,410360363.9044239
2,1, 7,21, 0,18, 0.00,60.00,SummerDesignDay
1003,24.00000000000003
1043,24.000000000000076
1083,23.999999999999955
1123,24.000000000000005
1163,24.000000000000019
1203,24.00000000000006
1243,24.00000000000001
1283,24.000000000000044
1323,24.00000000000003
1363,24.000000000000015
1403,23.999999999999916
1443,24.000000000000033
1483,24.000000000000047
1523,24.000000000000033
1563,24.00000000000008
1603,24.00000000000007
1643,24.000000000000019
1683,24.00000000000003
1723,24.0000000000001
1763,24.0
1803,24.000000000000104
1843,24.000000000000126
2,1, 7,21, 0,19, 0.00,10.00,SummerDesignDay
8,21.023019732832933
10,96015912.22234476
1957,0.0
1994,336375957.93238368
2,1, 7,21, 0,19,10.00,20.00,SummerDesignDay
8,20.948490549703029
10,96015912.22234476
1957,0.0
1994,321819572.2702783
2,1, 7,21, 0,19,20.00,30.00,SummerDesignDay
8,20.873745184382885
10,96015912.22234476
1957,0.0
1994,310366745.0378147
2,1, 7,21, 0,19,30.00,40.00,SummerDesignDay
8,20.798782612519024
10,96015912.22234476
1957,0.0
1994,298230320.5423504
2,1, 7,21, 0,19,40.00,50.00,SummerDesignDay
8,20.723605634987398
10,96015912.22234476
1957,0.0
1994,285557681.8146136
2,1, 7,21, 0,19,50.00,60.00,SummerDesignDay
8,20.648205443782066
10,96015912.22234476
1957,0.0
1994,271046728.95536276
2,1, 7,21, 0,19, 0.00,60.00,SummerDesignDay
1003,24.000000000000026
1043,24.000000000000019
1083,24.000000000000044
1123,23.999999999999976
1163,24.000000000000033
1203,24.00000000000003
1243,24.000000000000005
1283,24.000000000000019
1323,24.00000000000003
1363,24.00000000000007
1403,24.000000000000126
1443,24.00000000000001
1483,23.999999999999987
1523,24.00000000000008
1563,24.00000000000003
1603,23.999999999999976
1643,24.000000000000055
1683,24.0
1723,24.00000000000001
1763,24.000000000000044
1803,24.00000000000001
1843,23.99999999999984
2,1, 7,21, 0,20, 0.00,10.00,SummerDesignDay
8,20.59277197915242
10,57609547.33340686
1957,0.0
1994,224767864.17534123
2,1, 7,21, 0,20,10.00,20.00,SummerDesignDay
8,20.537219972964399
10,57609547.33340686
1957,0.0
1994,210006480.89688803
2,1, 7,21, 0,20,20.00,30.00,SummerDesignDay
8,20.48154799091199
10,57609547.33340686
1957,0.0
1994,197574697.52267996
2,1, 7,21, 0,20,30.00,40.00,SummerDesignDay
8,20.425752225515759
10,57609547.33340686
1957,0.0
1994,186515472.04745544
2,1, 7,21, 0,20,40.00,50.00,SummerDesignDay
8,20.369840248455387
10,57609547.33340686
1957,0.0
1994,179360210.10866953
2,1, 7,21, 0,20,50.00,60.00,SummerDesignDay
8,20.313807280186916
10,57609547.33340686
1957,0.0
1994,173659595.73390693
2,1, 7,21, 0,20, 0.00,60.00,SummerDesignDay
1003,24.00000000000003
1043,24.00000000000003
1083,24.000000000000033
1123,24.00000000000003
1163,24.000000000000026
1203,24.000000000000015
1243,24.00000000000001
1283,24.000000000000015
1323,24.00000000000003
1363,24.000000000000097
1403,24.0
1443,24.000000000000015
1483,24.000000000000015
1523,23.999999999999987
1563,23.999999999999984
1603,24.000000000000033
1643,24.00000000000003
1683,24.00000000000001
1723,24.000000000000055
1763,24.000000000000015
1803,24.00000000000006