Program Version,EnergyPlus, Version 8.9.0-497bb3e71c, YMD=2018.06.06 17:23
1,5,Environment Title[],Latitude[deg],Longitude[deg],Time Zone[],Elevation[m]
2,8,Day of Simulation[],Month[],Day of Month[],DST Indicator[1=yes 0=no],Hour[],StartMinute[],EndMinute[],DayType
3,5,Cumulative Day of Simulation[],Month[],Day of Month[],DST Indicator[1=yes 0=no],DayType  ! When Daily Report Variables Requested
4,2,Cumulative Days of Simulation[],Month[]  ! When Monthly Report Variables Requested
5,1,Cumulative Days of Simulation[] ! When Run Period Report Variables Requested
6,1,Calendar Year of Simulation[] ! When Annual Report Variables Requested
7,9,Environment,Site Outdoor Air Drybulb Temperature [C] !Monthly [Value,Min,Day,Hour,Minute,Max,Day,Hour,Minute]
8,1,Environment,Site Outdoor Air Wetbulb Temperature [C] !TimeStep
243,1,ATTIC ZN,Zone Air Temperature [C] !Hourly
244,7,ATTIC ZN,Zone Air Relative Humidity [%] !Daily [Value,Min,Hour,Minute,Max,Hour,Minute]
283,1,DINING ZN,Zone Air Temperature [C] !Hourly
284,7,DINING ZN,Zone Air Relative Humidity [%] !Daily [Value,Min,Hour,Minute,Max,Hour,Minute]
323,1,KITCHEN ZN,Zone Air Temperature [C] !Hourly
324,7,KITCHEN ZN,Zone Air Relative Humidity [%] !Daily [Value,Min,Hour,Minute,Max,Hour,Minute]
10,1,Electricity:Facility [J] !TimeStep
474,1,DistrictCooling:Facility [J] !TimeStep
437,1,DistrictHeating:Facility [J] !TimeStep
End of Data Dictionary
1,VANCOUVER INTL AP ANN CLG .4% CONDNS DB=>MWB,  49.20,-123.18,  -8.00,   4.30
2,1, 7,21, 0, 1, 0.00,10.00,SummerDesignDay
8,16.352199953652215
10,3686127.1022765117
437,0.0
474,1087505.5023888834
2,1, 7,21, 0, 1,10.00,20.00,SummerDesignDay
8,16.3252576442975
10,3686127.1022765117
437,0.0
474,1058382.7583385739
2,1, 7,21, 0, 1,20.00,30.00,SummerDesignDay
8,16.2982938306074
10,3686127.1022765117
437,0.0
474,1029944.4500911888
2,1, 7,21, 0, 1,30.00,40.00,SummerDesignDay
8,16.271298954341999
10,3686127.1022765117
437,0.0
474,1001539.8792982319
2,1, 7,21, 0, 1,40.00,50.00,SummerDesignDay
8,16.244276700157607
10,3686127.1022765117
437,0.0
474,973279.154290731
2,1, 7,21, 0, 1,50.00,60.00,SummerDesignDay
8,16.217228272321866
10,3686127.1022765117
437,0.0
474,945211.5322570979
2,1, 7,21, 0, 1, 0.00,60.00,SummerDesignDay
243,25.01786340924544
283,22.595086210584197
323,24.000000000000044
2,1, 7,21, 0, 2, 0.00,10.00,SummerDesignDay
8,16.199184445315237
10,2047848.3901536177
437,0.0
474,0.0
2,1, 7,21, 0, 2,10.00,20.00,SummerDesignDay
8,16.181123823551326
10,2047848.3901536177
437,0.0
474,0.0
2,1, 7,21, 0, 2,20.00,30.00,SummerDesignDay
8,16.163056857826836
10,2047848.3901536177
437,313971.1863350877
474,0.0
2,1, 7,21, 0, 2,30.00,40.00,SummerDesignDay
8,16.144971888810827
10,2047848.3901536177
437,265984.2314286935
474,0.0
2,1, 7,21, 0, 2,40.00,50.00,SummerDesignDay
8,16.12688104636919
10,2047848.3901536177
437,402339.42262457378
474,0.0
2,1, 7,21, 0, 2,50.00,60.00,SummerDesignDay
8,16.108773026303486
10,2047848.3901536177
437,509680.3617654895
474,0.0
2,1, 7,21, 0, 2, 0.00,60.00,SummerDesignDay
243,24.806867903522549
283,22.052592285633165
323,24.309146193608475
2,1, 7,21, 0, 3, 0.00,10.00,SummerDesignDay
8,16.095187997840726
10,409569.6780307236
437,0.0
474,0.0
2,1, 7,21, 0, 3,10.00,20.00,SummerDesignDay
8,16.08159647937563
10,409569.6780307236
437,0.0
474,0.0
2,1, 7,21, 0, 3,20.00,30.00,SummerDesignDay
8,16.067992103020477
10,409569.6780307236
437,0.0
474,0.0
2,1, 7,21, 0, 3,30.00,40.00,SummerDesignDay
8,16.054387489767213
10,409569.6780307236
437,0.0
474,0.0
2,1, 7,21, 0, 3,40.00,50.00,SummerDesignDay
8,16.040775235496488
10,409569.6780307236
437,0.0
474,0.0
2,1, 7,21, 0, 3,50.00,60.00,SummerDesignDay
8,16.027151463515208
10,409569.6780307236
437,0.0
474,0.0
2,1, 7,21, 0, 3, 0.00,60.00,SummerDesignDay
243,24.57786923087514
283,21.384673862131839
323,23.563391527167004
2,1, 7,21, 0, 4, 0.00,10.00,SummerDesignDay
8,16.013526309671386
10,409569.6780307236
437,0.0
474,0.0
2,1, 7,21, 0, 4,10.00,20.00,SummerDesignDay
8,15.999888590638458
10,409569.6780307236
437,0.0
474,0.0
2,1, 7,21, 0, 4,20.00,30.00,SummerDesignDay
8,15.986249958378048
10,409569.6780307236
437,0.0
474,0.0
2,1, 7,21, 0, 4,30.00,40.00,SummerDesignDay
8,15.972604339068287
10,409569.6780307236
437,0.0
474,0.0
2,1, 7,21, 0, 4,40.00,50.00,SummerDesignDay
8,15.958946698244901
10,409569.6780307236
437,0.0
474,0.0
2,1, 7,21, 0, 4,50.00,60.00,SummerDesignDay
8,15.945287702730492
10,409569.6780307236
437,0.0
474,0.0
2,1, 7,21, 0, 4, 0.00,60.00,SummerDesignDay
243,24.313171926525816
283,21.01601505798981
323,23.12323645903889
2,1, 7,21, 0, 5, 0.00,10.00,SummerDesignDay
8,15.936177990809899
10,409569.6780307236
437,0.0
474,0.0
2,1, 7,21, 0, 5,10.00,20.00,SummerDesignDay
8,15.92705949178547
10,409569.6780307236
437,0.0
474,0.0
2,1, 7,21, 0, 5,20.00,30.00,SummerDesignDay
8,15.917943710706878
10,409569.6780307236
437,0.0
474,0.0
2,1, 7,21, 0, 5,30.00,40.00,SummerDesignDay
8,15.908825155859729
10,409569.6780307236
437,0.0
474,0.0
2,1, 7,21, 0, 5,40.00,50.00,SummerDesignDay
8,15.89970321878413
10,409569.6780307236
437,0.0
474,0.0
2,1, 7,21, 0, 5,50.00,60.00,SummerDesignDay
8,15.89058503181825
10,409569.6780307236
437,0.0
474,0.0
2,1, 7,21, 0, 5, 0.00,60.00,SummerDesignDay
243,24.062984747887513
283,20.789248107417675
323,22.867750408856485
2,1, 7,21, 0, 6, 0.00,10.00,SummerDesignDay
8,15.89970321878413
10,409569.6780307236
437,0.0
474,0.0
2,1, 7,21, 0, 6,10.00,20.00,SummerDesignDay
8,15.908825155859729
10,409569.6780307236
437,0.0
474,0.0
2,1, 7,21, 0, 6,20.00,30.00,SummerDesignDay
8,15.917943710706878
10,409569.6780307236
437,0.0
474,0.0
2,1, 7,21, 0, 6,30.00,40.00,SummerDesignDay
8,15.92705949178547
10,409569.6780307236
437,0.0
474,0.0
2,1, 7,21, 0, 6,40.00,50.00,SummerDesignDay
8,15.936177990809899
10,409569.6780307236
437,0.0
474,0.0
2,1, 7,21, 0, 6,50.00,60.00,SummerDesignDay
8,15.945287702730492
10,409569.6780307236
437,0.0
474,0.0
2,1, 7,21, 0, 6, 0.00,60.00,SummerDesignDay
243,24.22053227750746
283,21.007726849161263
323,22.71456551528111
2,1, 7,21, 0, 7, 0.00,10.00,SummerDesignDay
8,15.977153459569559
10,409569.6780307236
437,0.0
474,0.0
2,1, 7,21, 0, 7,10.00,20.00,SummerDesignDay
8,16.00898303120887
10,409569.6780307236
437,0.0
474,0.0
2,1, 7,21, 0, 7,20.00,30.00,SummerDesignDay
8,16.040775235496488
10,409569.6780307236
437,0.0
474,0.0
2,1, 7,21, 0, 7,30.00,40.00,SummerDesignDay
8,16.072525945973774
10,409569.6780307236
437,0.0
474,0.0
2,1, 7,21, 0, 7,40.00,50.00,SummerDesignDay
8,16.104245538982189
10,409569.6780307236
437,0.0
474,0.0
2,1, 7,21, 0, 7,50.00,60.00,SummerDesignDay
8,16.135928228205914
10,409569.6780307236
437,0.0
474,0.0
2,1, 7,21, 0, 7, 0.00,60.00,SummerDesignDay
243,24.56989367595888
283,21.453061469411769
323,22.714159083098435
2,1, 7,21, 0, 8, 0.00,10.00,SummerDesignDay
8,16.212718231329928
10,409569.6780307236
437,0.0
474,0.0
2,1, 7,21, 0, 8,10.00,20.00,SummerDesignDay
8,16.289295095914626
10,409569.6780307236
437,0.0
474,0.0
2,1, 7,21, 0, 8,20.00,30.00,SummerDesignDay
8,16.365658732225424
10,409569.6780307236
437,0.0
474,0.0
2,1, 7,21, 0, 8,30.00,40.00,SummerDesignDay
8,16.44181049723187
10,409569.6780307236
437,0.0
474,0.0
2,1, 7,21, 0, 8,40.00,50.00,SummerDesignDay
8,16.517756147764346
10,409569.6780307236
437,0.0
474,0.0
2,1, 7,21, 0, 8,50.00,60.00,SummerDesignDay
8,16.593486849767513
10,409569.6780307236
437,0.0
474,0.0
2,1, 7,21, 0, 8, 0.00,60.00,SummerDesignDay
243,25.141075741387629
283,22.06075336342218
323,22.906512440860216
2,1, 7,21, 0, 9, 0.00,10.00,SummerDesignDay
8,16.677878063199516
10,409569.6780307236
437,0.0
474,0.0
2,1, 7,21, 0, 9,10.00,20.00,SummerDesignDay
8,16.76200946235728
10,409569.6780307236
437,0.0
474,0.0
2,1, 7,21, 0, 9,20.00,30.00,SummerDesignDay
8,16.845887031033866
10,409569.6780307236
437,0.0
474,0.0
2,1, 7,21, 0, 9,30.00,40.00,SummerDesignDay
8,16.929502190751337
10,409569.6780307236
437,0.0
474,0.0
2,1, 7,21, 0, 9,40.00,50.00,SummerDesignDay
8,17.012861351115086
10,409569.6780307236
437,0.0
474,0.0
2,1, 7,21, 0, 9,50.00,60.00,SummerDesignDay
8,17.09597057951627
10,409569.6780307236
437,0.0
474,0.0
2,1, 7,21, 0, 9, 0.00,60.00,SummerDesignDay
243,25.912502280632965
283,22.860984564069758
323,23.29321337140624
2,1, 7,21, 0,10, 0.00,10.00,SummerDesignDay
8,17.17011313897211
10,2047848.3901536177
437,0.0
474,0.0
2,1, 7,21, 0,10,10.00,20.00,SummerDesignDay
8,17.24405314489198
10,2047848.3901536177
437,0.0
474,261424.4412766049
2,1, 7,21, 0,10,20.00,30.00,SummerDesignDay
8,17.317792342150307
10,2047848.3901536177
437,0.0
474,512625.100853524
2,1, 7,21, 0,10,30.00,40.00,SummerDesignDay
8,17.391330750865035
10,2047848.3901536177
437,0.0
474,862847.9402283386
2,1, 7,21, 0,10,40.00,50.00,SummerDesignDay
8,17.464669750704549
10,2047848.3901536177
437,0.0
474,1304437.905338542
2,1, 7,21, 0,10,50.00,60.00,SummerDesignDay
8,17.537810589481837
10,2047848.3901536177
437,0.0
474,1685349.5431430548
2,1, 7,21, 0,10, 0.00,60.00,SummerDesignDay
243,26.667310066030706
283,23.819627070798906
323,23.95944804052526
2,1, 7,21, 0,11, 0.00,10.00,SummerDesignDay
8,17.60218312883583
10,2866987.746215064
437,0.0
474,2778970.297919996
2,1, 7,21, 0,11,10.00,20.00,SummerDesignDay
8,17.666401914182499
10,2866987.746215064
437,0.0
474,3183920.8497165276
2,1, 7,21, 0,11,20.00,30.00,SummerDesignDay
8,17.73046886665172
10,2866987.746215064
437,0.0
474,3542717.713058402
2,1, 7,21, 0,11,30.00,40.00,SummerDesignDay
8,17.794377337180749
10,2866987.746215064
437,0.0
474,3895610.5666144716
2,1, 7,21, 0,11,40.00,50.00,SummerDesignDay
8,17.858140091722729
10,2866987.746215064
437,0.0
474,4238268.412291711
2,1, 7,21, 0,11,50.00,60.00,SummerDesignDay
8,17.921751671476274
10,2866987.746215064
437,0.0
474,4586854.931391321
2,1, 7,21, 0,11, 0.00,60.00,SummerDesignDay
243,27.47979354450322
283,23.999932925629066
323,23.9999999780492
2,1, 7,21, 0,12, 0.00,10.00,SummerDesignDay
8,17.964074041059168
10,3686127.1022765117
437,0.0
474,5960159.076681352
2,1, 7,21, 0,12,10.00,20.00,SummerDesignDay
8,18.00633512830953
10,3686127.1022765117
437,0.0
474,6295244.892338736
2,1, 7,21, 0,12,20.00,30.00,SummerDesignDay
8,18.048524057857607
10,3686127.1022765117
437,0.0
474,6595904.96298022
2,1, 7,21, 0,12,30.00,40.00,SummerDesignDay
8,18.090647246552004
10,3686127.1022765117
437,0.0
474,6894317.347385471
2,1, 7,21, 0,12,40.00,50.00,SummerDesignDay
8,18.132703529720616
10,3686127.1022765117
437,0.0
474,7193219.836258055
2,1, 7,21, 0,12,50.00,60.00,SummerDesignDay
8,18.17469964536842
10,3686127.1022765117
437,0.0
474,7487694.667995426
2,1, 7,21, 0,12, 0.00,60.00,SummerDesignDay
243,28.097565481276438
283,23.999999991514586
323,23.999999999999984
2,1, 7,21, 0,13, 0.00,10.00,SummerDesignDay
8,18.208245339828517
10,3686127.1022765117
437,0.0
474,8532418.049695546
2,1, 7,21, 0,13,10.00,20.00,SummerDesignDay
8,18.241744233723979
10,3686127.1022765117
437,0.0
474,8792338.87414464
2,1, 7,21, 0,13,20.00,30.00,SummerDesignDay
8,18.2752069112248
10,3686127.1022765117
437,0.0
474,9039786.021519872
2,1, 7,21, 0,13,30.00,40.00,SummerDesignDay
8,18.30862693969058
10,3686127.1022765117
437,0.0
474,9280438.622261474
2,1, 7,21, 0,13,40.00,50.00,SummerDesignDay
8,18.342005526737105
10,3686127.1022765117
437,0.0
474,9512828.502396092
2,1, 7,21, 0,13,50.00,60.00,SummerDesignDay
8,18.375341817792614
10,3686127.1022765117
437,0.0
474,9742391.4228851
2,1, 7,21, 0,13, 0.00,60.00,SummerDesignDay
243,28.534246134030537
283,23.999999999999
323,23.999999999999987
2,1, 7,21, 0,14, 0.00,10.00,SummerDesignDay
8,18.39615811087369
10,3686127.1022765117
437,0.0
474,9713621.446326999
2,1, 7,21, 0,14,10.00,20.00,SummerDesignDay
8,18.416957955881725
10,3686127.1022765117
437,0.0
474,9884644.095990237
2,1, 7,21, 0,14,20.00,30.00,SummerDesignDay
8,18.43773680274513
10,3686127.1022765117
437,0.0
474,10068567.853847348
2,1, 7,21, 0,14,30.00,40.00,SummerDesignDay
8,18.458504433044504
10,3686127.1022765117
437,0.0
474,10265385.054348978
2,1, 7,21, 0,14,40.00,50.00,SummerDesignDay
8,18.479250383250578
10,3686127.1022765117
437,0.0
474,10473395.298443489
2,1, 7,21, 0,14,50.00,60.00,SummerDesignDay
8,18.499985692685468
10,3686127.1022765117
437,0.0
474,10689625.215643999
2,1, 7,21, 0,14, 0.00,60.00,SummerDesignDay
243,28.79604269354479
283,24.000000000000033
323,24.000000000000015
2,1, 7,21, 0,15, 0.00,10.00,SummerDesignDay
8,18.499985692685468
10,3686127.1022765117
437,0.0
474,10211578.551358866
2,1, 7,21, 0,15,10.00,20.00,SummerDesignDay
8,18.499985692685468
10,3686127.1022765117
437,0.0
474,10325229.327078307
2,1, 7,21, 0,15,20.00,30.00,SummerDesignDay
8,18.499985692685468
10,3686127.1022765117
437,0.0
474,10453759.843458366
2,1, 7,21, 0,15,30.00,40.00,SummerDesignDay
8,18.499985692685468
10,3686127.1022765117
437,0.0
474,10578231.143722147
2,1, 7,21, 0,15,40.00,50.00,SummerDesignDay
8,18.499985692685468
10,3686127.1022765117
437,0.0
474,10694749.209639419
2,1, 7,21, 0,15,50.00,60.00,SummerDesignDay
8,18.499985692685468
10,3686127.1022765117
437,0.0
474,10802028.865147088
2,1, 7,21, 0,15, 0.00,60.00,SummerDesignDay
243,28.870693478958957
283,24.00000000000006
323,24.00000000000003
2,1, 7,21, 0,16, 0.00,10.00,SummerDesignDay
8,18.475102970177127
10,3686127.1022765117
437,0.0
474,10170234.616245298
2,1, 7,21, 0,16,10.00,20.00,SummerDesignDay
8,18.450201543271235
10,3686127.1022765117
437,0.0
474,10114563.071995378
2,1, 7,21, 0,16,20.00,30.00,SummerDesignDay
8,18.425271777286019
10,3686127.1022765117
437,0.0
474,10061657.772706129
2,1, 7,21, 0,16,30.00,40.00,SummerDesignDay
8,18.40031825447926
10,3686127.1022765117
437,0.0
474,10001859.887923675
2,1, 7,21, 0,16,40.00,50.00,SummerDesignDay
8,18.375341817792614
10,3686127.1022765117
437,0.0
474,9936226.253011689
2,1, 7,21, 0,16,50.00,60.00,SummerDesignDay
8,18.350347174046595
10,3686127.1022765117
437,0.0
474,9877596.085083062
2,1, 7,21, 0,16, 0.00,60.00,SummerDesignDay
243,28.7417925947405
283,24.000000000000019
323,24.000000000000026
2,1, 7,21, 0,17, 0.00,10.00,SummerDesignDay
8,18.316978860635527
10,3686127.1022765117
437,0.0
474,9768148.270213899
2,1, 7,21, 0,17,10.00,20.00,SummerDesignDay
8,18.2835693630182
10,3686127.1022765117
437,0.0
474,9652685.134315528
2,1, 7,21, 0,17,20.00,30.00,SummerDesignDay
8,18.250118050746214
10,3686127.1022765117
437,0.0
474,9531145.28290531
2,1, 7,21, 0,17,30.00,40.00,SummerDesignDay
8,18.216624325548968
10,3686127.1022765117
437,0.0
474,9401293.486331229
2,1, 7,21, 0,17,40.00,50.00,SummerDesignDay
8,18.183088861944893
10,3686127.1022765117
437,0.0
474,9261737.442567219
2,1, 7,21, 0,17,50.00,60.00,SummerDesignDay
8,18.149510843493635
10,3686127.1022765117
437,0.0
474,9112883.910899893
2,1, 7,21, 0,17, 0.00,60.00,SummerDesignDay
243,28.406440794993079
283,24.000000000000055
323,24.00000000000001
2,1, 7,21, 0,18, 0.00,10.00,SummerDesignDay
8,18.10748062898272
10,3686127.1022765117
437,0.0
474,9117544.46920465
2,1, 7,21, 0,18,10.00,20.00,SummerDesignDay
8,18.065379091048376
10,3686127.1022765117
437,0.0
474,8918129.36691878
2,1, 7,21, 0,18,20.00,30.00,SummerDesignDay
8,18.023216461654344
10,3686127.1022765117
437,0.0
474,8702748.780086779
2,1, 7,21, 0,18,30.00,40.00,SummerDesignDay
8,17.980987605947548
10,3686127.1022765117
437,0.0
474,8471384.575598939
2,1, 7,21, 0,18,40.00,50.00,SummerDesignDay
8,17.93869205826644
10,3686127.1022765117
437,0.0
474,8226483.454836028
2,1, 7,21, 0,18,50.00,60.00,SummerDesignDay
8,17.89632405402092
10,3686127.1022765117
437,0.0
474,7965090.38701017
2,1, 7,21, 0,18, 0.00,60.00,SummerDesignDay
243,27.890030656639828
283,23.99999999999999
323,23.999999999999987
2,1, 7,21, 0,19, 0.00,10.00,SummerDesignDay
8,17.832657261722244
10,3686127.1022765117
437,0.0
474,8185385.477828848
2,1, 7,21, 0,19,10.00,20.00,SummerDesignDay
8,17.768833985856515
10,3686127.1022765117
437,0.0
474,7804408.619178917
2,1, 7,21, 0,19,20.00,30.00,SummerDesignDay
8,17.704859478274899
10,3686127.1022765117
437,0.0
474,7397314.616102965
2,1, 7,21, 0,19,30.00,40.00,SummerDesignDay
8,17.640731707059819
10,3686127.1022765117
437,0.0
474,6970859.225064619
2,1, 7,21, 0,19,40.00,50.00,SummerDesignDay
8,17.576451319157326
10,3686127.1022765117
437,0.0
474,6524761.019932152
2,1, 7,21, 0,19,50.00,60.00,SummerDesignDay
8,17.512016904905339
10,3686127.1022765117
437,0.0
474,6058446.577071435
2,1, 7,21, 0,19, 0.00,60.00,SummerDesignDay
243,27.221650571285534
283,24.0
323,24.000000000000019
2,1, 7,21, 0,20, 0.00,10.00,SummerDesignDay
8,17.464669750704549
10,3686127.1022765117
437,0.0
474,6256975.1069589289
2,1, 7,21, 0,20,10.00,20.00,SummerDesignDay
8,17.417239543286124
10,3686127.1022765117
437,0.0
474,5850278.57916317
2,1, 7,21, 0,20,20.00,30.00,SummerDesignDay
8,17.369720602565694
10,3686127.1022765117
437,0.0
474,5409928.7738933
2,1, 7,21, 0,20,30.00,40.00,SummerDesignDay
8,17.32212315858905
10,3686127.1022765117
437,0.0
474,4936643.587326417
2,1, 7,21, 0,20,40.00,50.00,SummerDesignDay
8,17.27444149556641
10,3686127.1022765117
437,0.0
474,4498228.259340649
2,1, 7,21, 0,20,50.00,60.00,SummerDesignDay
8,17.22667133087272
10,3686127.1022765117
437,0.0
474,4091871.4377851176
2,1, 7,21, 0,20, 0.00,60.00,SummerDesignDay
243,26.60535935245358
283,23.99999999999999
323,24.000000000000005
2,1, 7,21, 0,21, 0.00,10.00,SummerDesignDay
8,17.187526559563478
10,3686127.1022765117
437,0.0
474,3736573.7931260897
2,1, 7,21, 0,21,10.00,20.00,SummerDesignDay
8,17.14832575016431
10,3686127.1022765117
437,0.0
474,3464562.1442970104
2,1, 7,21, 0,21,20.00,30.00,SummerDesignDay
8,17.109067882849585
10,3686127.1022765117
437,0.0
474,3220035.6199254544
2,1, 7,21, 0,21,30.00,40.00,SummerDesignDay
8,17.06975316359479
10,3686127.1022765117
437,0.0
474,2983232.693247906
2,1, 7,21, 0,21,40.00,50.00,SummerDesignDay
8,17.030381184961106
10,3686127.1022765117
437,0.0
474,2751560.682021551
2,1, 7,21, 0,21,50.00,60.00,SummerDesignDay
8,16.990952199245954
10,3686127.1022765117
437,0.0
474,2523278.1561672806
2,1, 7,21, 0,21, 0.00,60.00,SummerDesignDay
243,25.964746219687389
283,24.000000000000019
323,24.00000000000003
2,1, 7,21, 0,22, 0.00,10.00,SummerDesignDay
8,16.951466381705289
10,3686127.1022765117
437,0.0
474,2297227.2497624747
2,1, 7,21, 0,22,10.00,20.00,SummerDesignDay
8,16.91191764298267
10,3686127.1022765117
437,0.0
474,2072674.175181035
2,1, 7,21, 0,22,20.00,30.00,SummerDesignDay
8,16.872316270901277
10,3686127.1022765117
437,0.0
474,1849124.926232411
2,1, 7,21, 0,22,30.00,40.00,SummerDesignDay
8,16.832657583970926
10,3686127.1022765117
437,0.0
474,1652694.047266686
2,1, 7,21, 0,22,40.00,50.00,SummerDesignDay
8,16.792940913271754
10,3686127.1022765117
437,0.0
474,1625417.681027109
2,1, 7,21, 0,22,50.00,60.00,SummerDesignDay
8,16.75316676384634
10,3686127.1022765117
437,0.0
474,1598024.9422758017
2,1, 7,21, 0,22, 0.00,60.00,SummerDesignDay
243,25.6337835401276
283,23.976207165516255
323,24.00000000000003
2,1, 7,21, 0,23, 0.00,10.00,SummerDesignDay
8,16.722189413934204
10,3686127.1022765117
437,0.0
474,1493679.9414109032
2,1, 7,21, 0,23,10.00,20.00,SummerDesignDay
8,16.691177401191405
10,3686127.1022765117
437,0.0
474,1474762.7393876794
2,1, 7,21, 0,23,20.00,30.00,SummerDesignDay
8,16.660129834097096
10,3686127.1022765117
437,0.0
474,1456212.0108721923
2,1, 7,21, 0,23,30.00,40.00,SummerDesignDay
8,16.62905234664031
10,3686127.1022765117
437,0.0
474,1437382.7746337744
2,1, 7,21, 0,23,40.00,50.00,SummerDesignDay
8,16.597934345516849
10,3686127.1022765117
437,0.0
474,1418514.6694143839
2,1, 7,21, 0,23,50.00,60.00,SummerDesignDay
8,16.566780836645607
10,3686127.1022765117
437,0.0
474,1399727.3910975839
2,1, 7,21, 0,23, 0.00,60.00,SummerDesignDay
243,25.422606263644786
283,23.52709099174052
323,24.000000000000005
2,1, 7,21, 0,24, 0.00,10.00,SummerDesignDay
8,16.53559150074222
10,3686127.1022765117
437,0.0
474,1319973.4759520624
2,1, 7,21, 0,24,10.00,20.00,SummerDesignDay
8,16.504366423325597
10,3686127.1022765117
437,0.0
474,1289424.5579585734
2,1, 7,21, 0,24,20.00,30.00,SummerDesignDay
8,16.473106420779854
10,3686127.1022765117
437,0.0
474,1260072.6661572133
2,1, 7,21, 0,24,30.00,40.00,SummerDesignDay
8,16.44181049723187
10,3686127.1022765117
437,0.0
474,1230565.6962983167
2,1, 7,21, 0,24,40.00,50.00,SummerDesignDay
8,16.410483695355663
10,3686127.1022765117
437,0.0
474,1201117.6386362944
2,1, 7,21, 0,24,50.00,60.00,SummerDesignDay
8,16.379116168301004
10,3686127.1022765117
437,0.0
474,1171866.7002390125
2,1, 7,21, 0,24, 0.00,60.00,SummerDesignDay
243,25.224921820519005
283,23.02750297180455
323,24.000000000000026
3,1, 7,21, 0,SummerDesignDay
244,49.828686472079478,42.73424588359799,15,30,56.924925500399719, 5,50
284,59.789607774632909,52.56888562100854,16,40,69.4203169368814, 5,50
324,53.96495658163036,47.68673524738964,17,20,61.688199017232907, 7,10
4,1, 7
7,21.0245,17.5,21, 5,60,25.1,21,14,60
1,VANCOUVER INTL AP ANN HTG 99.6% CONDNS DB,  49.20,-123.18,  -8.00,   4.30
2,1,12,21, 0, 1, 0.00,10.00,WinterDesignDay
8,-6.1
10,3686127.1022765117
437,33450301.888788616
474,0.0
2,1,12,21, 0, 1,10.00,20.00,WinterDesignDay
8,-6.1
10,3686127.1022765117
437,33446457.697150425
474,0.0
2,1,12,21, 0, 1,20.00,30.00,WinterDesignDay
8,-6.1
10,3686127.1022765117
437,33440306.907030178
474,0.0
2,1,12,21, 0, 1,30.00,40.00,WinterDesignDay
8,-6.1
10,3686127.1022765117
437,33433636.374212136
474,0.0
2,1,12,21, 0, 1,40.00,50.00,WinterDesignDay
8,-6.1
10,3686127.1022765117
437,33426655.53139531
474,0.0
2,1,12,21, 0, 1,50.00,60.00,WinterDesignDay
8,-6.1
10,3686127.1022765117
437,33419503.15331056
474,0.0
2,1,12,21, 0, 1, 0.00,60.00,WinterDesignDay
243,15.434923812408933
283,21.99999999999999
323,21.999999999999998
2,1,12,21, 0, 2, 0.00,10.00,WinterDesignDay
8,-6.1
10,2047848.3901536177
437,34417462.08201018
474,0.0
2,1,12,21, 0, 2,10.00,20.00,WinterDesignDay
8,-6.1
10,2047848.3901536177
437,34492229.42549833
474,0.0
2,1,12,21, 0, 2,20.00,30.00,WinterDesignDay
8,-6.1
10,2047848.3901536177
437,34524024.55979244
474,0.0
2,1,12,21, 0, 2,30.00,40.00,WinterDesignDay
8,-6.1
10,2047848.3901536177
437,34547492.80397634
474,0.0
2,1,12,21, 0, 2,40.00,50.00,WinterDesignDay
8,-6.1
10,2047848.3901536177
437,34564718.274941388
474,0.0
2,1,12,21, 0, 2,50.00,60.00,WinterDesignDay
8,-6.1
10,2047848.3901536177
437,34577582.95098816
474,0.0
2,1,12,21, 0, 2, 0.00,60.00,WinterDesignDay
243,15.46921077012709
283,21.999999999999987
323,21.99999999999999
2,1,12,21, 0, 3, 0.00,10.00,WinterDesignDay
8,-6.1
10,409569.6780307236
437,19232870.07390373
474,0.0
2,1,12,21, 0, 3,10.00,20.00,WinterDesignDay
8,-6.1
10,409569.6780307236
437,24441078.275694889
474,0.0
2,1,12,21, 0, 3,20.00,30.00,WinterDesignDay
8,-6.1
10,409569.6780307236
437,25361054.231956439
474,0.0
2,1,12,21, 0, 3,30.00,40.00,WinterDesignDay
8,-6.1
10,409569.6780307236
437,26452226.209293277
474,0.0
2,1,12,21, 0, 3,40.00,50.00,WinterDesignDay
8,-6.1
10,409569.6780307236
437,26772731.46272842
474,0.0
2,1,12,21, 0, 3,50.00,60.00,WinterDesignDay
8,-6.1
10,409569.6780307236
437,26895711.785560464
474,0.0
2,1,12,21, 0, 3, 0.00,60.00,WinterDesignDay
243,15.46729851612663
283,18.069010972492977
323,18.195391239208573
2,1,12,21, 0, 4, 0.00,10.00,WinterDesignDay
8,-6.1
10,409569.6780307236
437,26973814.81845687
474,0.0
2,1,12,21, 0, 4,10.00,20.00,WinterDesignDay
8,-6.1
10,409569.6780307236
437,27041761.315878497
474,0.0
2,1,12,21, 0, 4,20.00,30.00,WinterDesignDay
8,-6.1
10,409569.6780307236
437,27099454.328299665
474,0.0
2,1,12,21, 0, 4,30.00,40.00,WinterDesignDay
8,-6.1
10,409569.6780307236
437,27149213.14993004
474,0.0
2,1,12,21, 0, 4,40.00,50.00,WinterDesignDay
8,-6.1
10,409569.6780307236
437,27192809.039626279
474,0.0
2,1,12,21, 0, 4,50.00,60.00,WinterDesignDay
8,-6.1
10,409569.6780307236
437,27231568.34174704
474,0.0
2,1,12,21, 0, 4, 0.00,60.00,WinterDesignDay
243,15.344706756401097
283,18.00000000290998
323,18.000000000034864
2,1,12,21, 0, 5, 0.00,10.00,WinterDesignDay
8,-6.1
10,409569.6780307236
437,27266461.275768326
474,0.0
2,1,12,21, 0, 5,10.00,20.00,WinterDesignDay
8,-6.1
10,409569.6780307236
437,27298161.966063538
474,0.0
2,1,12,21, 0, 5,20.00,30.00,WinterDesignDay
8,-6.1
10,409569.6780307236
437,27327063.897225948
474,0.0
2,1,12,21, 0, 5,30.00,40.00,WinterDesignDay
8,-6.1
10,409569.6780307236
437,27353089.4426382
474,0.0
2,1,12,21, 0, 5,40.00,50.00,WinterDesignDay
8,-6.1
10,409569.6780307236
437,27375822.340665964
474,0.0
2,1,12,21, 0, 5,50.00,60.00,WinterDesignDay
8,-6.1
10,409569.6780307236
437,27399150.442724259
474,0.0
2,1,12,21, 0, 5, 0.00,60.00,WinterDesignDay
243,15.142707454587069
283,18.000000000000566
323,18.0
2,1,12,21, 0, 6, 0.00,10.00,WinterDesignDay
8,-6.1
10,409569.6780307236
437,27421605.85808973
474,0.0
2,1,12,21, 0, 6,10.00,20.00,WinterDesignDay
8,-6.1
10,409569.6780307236
437,27443265.83416385
474,0.0
2,1,12,21, 0, 6,20.00,30.00,WinterDesignDay
8,-6.1
10,409569.6780307236
437,27464098.453142175
474,0.0
2,1,12,21, 0, 6,30.00,40.00,WinterDesignDay
8,-6.1
10,409569.6780307236
437,27483842.10173229
474,0.0
2,1,12,21, 0, 6,40.00,50.00,WinterDesignDay
8,-6.1
10,409569.6780307236
437,27503506.38530694
474,0.0
2,1,12,21, 0, 6,50.00,60.00,WinterDesignDay
8,-6.1
10,409569.6780307236
437,27522304.712803537
474,0.0
2,1,12,21, 0, 6, 0.00,60.00,WinterDesignDay
243,14.934188047883998
283,17.999999999999998
323,18.0
2,1,12,21, 0, 7, 0.00,10.00,WinterDesignDay
8,-6.1
10,409569.6780307236
437,27539852.88457356
474,0.0
2,1,12,21, 0, 7,10.00,20.00,WinterDesignDay
8,-6.1
10,409569.6780307236
437,27559940.764368297
474,0.0
2,1,12,21, 0, 7,20.00,30.00,WinterDesignDay
8,-6.1
10,409569.6780307236
437,27581675.9362627
474,0.0
2,1,12,21, 0, 7,30.00,40.00,WinterDesignDay
8,-6.1
10,409569.6780307236
437,27603618.355095235
474,0.0
2,1,12,21, 0, 7,40.00,50.00,WinterDesignDay
8,-6.1
10,409569.6780307236
437,27626543.26159729
474,0.0
2,1,12,21, 0, 7,50.00,60.00,WinterDesignDay
8,-6.1
10,409569.6780307236
437,27649802.436074128
474,0.0
2,1,12,21, 0, 7, 0.00,60.00,WinterDesignDay
243,14.732695930704582
283,18.0
323,18.0
2,1,12,21, 0, 8, 0.00,10.00,WinterDesignDay
8,-6.1
10,409569.6780307236
437,27673345.723412213
474,0.0
2,1,12,21, 0, 8,10.00,20.00,WinterDesignDay
8,-6.1
10,409569.6780307236
437,27697080.022291986
474,0.0
2,1,12,21, 0, 8,20.00,30.00,WinterDesignDay
8,-6.1
10,409569.6780307236
437,27720927.782029384
474,0.0
2,1,12,21, 0, 8,30.00,40.00,WinterDesignDay
8,-6.1
10,409569.6780307236
437,27744820.47408599
474,0.0
2,1,12,21, 0, 8,40.00,50.00,WinterDesignDay
8,-6.1
10,409569.6780307236
437,27768691.635036619
474,0.0
2,1,12,21, 0, 8,50.00,60.00,WinterDesignDay
8,-6.1
10,409569.6780307236
437,27792466.50883192
474,0.0
2,1,12,21, 0, 8, 0.00,60.00,WinterDesignDay
243,14.540109314513872
283,17.999999999999998
323,18.0
2,1,12,21, 0, 9, 0.00,10.00,WinterDesignDay
8,-6.1
10,409569.6780307236
437,35503975.97994577
474,0.0
2,1,12,21, 0, 9,10.00,20.00,WinterDesignDay
8,-6.1
10,409569.6780307236
437,28444105.215464087
474,0.0
2,1,12,21, 0, 9,20.00,30.00,WinterDesignDay
8,-6.1
10,409569.6780307236
437,33896583.81911891
474,0.0
2,1,12,21, 0, 9,30.00,40.00,WinterDesignDay
8,-6.1
10,409569.6780307236
437,32591626.33318194
474,0.0
2,1,12,21, 0, 9,40.00,50.00,WinterDesignDay
8,-6.1
10,409569.6780307236
437,32544909.992242934
474,0.0
2,1,12,21, 0, 9,50.00,60.00,WinterDesignDay
8,-6.1
10,409569.6780307236
437,32519054.682656558
474,0.0
2,1,12,21, 0, 9, 0.00,60.00,WinterDesignDay
243,14.36831343014859
283,19.996431922387257
323,20.005991716786565
2,1,12,21, 0,10, 0.00,10.00,WinterDesignDay
8,-6.1
10,2047848.3901536177
437,40505263.85590193
474,0.0
2,1,12,21, 0,10,10.00,20.00,WinterDesignDay
8,-6.1
10,2047848.3901536177
437,32987714.29453247
474,0.0
2,1,12,21, 0,10,20.00,30.00,WinterDesignDay
8,-6.1
10,2047848.3901536177
437,38211903.03986044
474,0.0
2,1,12,21, 0,10,30.00,40.00,WinterDesignDay
8,-6.1
10,2047848.3901536177
437,36823603.43204438
474,0.0
2,1,12,21, 0,10,40.00,50.00,WinterDesignDay
8,-6.1
10,2047848.3901536177
437,36689619.66987132
474,0.0
2,1,12,21, 0,10,50.00,60.00,WinterDesignDay
8,-6.1
10,2047848.3901536177
437,36592930.68662191
474,0.0
2,1,12,21, 0,10, 0.00,60.00,WinterDesignDay
243,14.258228638965905
283,21.996692848243496
323,22.00295514493817
2,1,12,21, 0,11, 0.00,10.00,WinterDesignDay
8,-6.1
10,2866987.746215064
437,36005272.955574769
474,0.0
2,1,12,21, 0,11,10.00,20.00,WinterDesignDay
8,-6.1
10,2866987.746215064
437,35901547.20515136
474,0.0
2,1,12,21, 0,11,20.00,30.00,WinterDesignDay
8,-6.1
10,2866987.746215064
437,35830952.33509548
474,0.0
2,1,12,21, 0,11,30.00,40.00,WinterDesignDay
8,-6.1
10,2866987.746215064
437,35771948.91210583
474,0.0
2,1,12,21, 0,11,40.00,50.00,WinterDesignDay
8,-6.1
10,2866987.746215064
437,35721561.697680328
474,0.0
2,1,12,21, 0,11,50.00,60.00,WinterDesignDay
8,-6.1
10,2866987.746215064
437,35677473.00350522
474,0.0
2,1,12,21, 0,11, 0.00,60.00,WinterDesignDay
243,14.275331120529439
283,21.99999999999996
323,22.00000000000003
2,1,12,21, 0,12, 0.00,10.00,WinterDesignDay
8,-6.1
10,3686127.1022765117
437,34814378.729896809
474,0.0
2,1,12,21, 0,12,10.00,20.00,WinterDesignDay
8,-6.1
10,3686127.1022765117
437,34726825.37270302
474,0.0
2,1,12,21, 0,12,20.00,30.00,WinterDesignDay
8,-6.1
10,3686127.1022765117
437,34668961.26118498
474,0.0
2,1,12,21, 0,12,30.00,40.00,WinterDesignDay
8,-6.1
10,3686127.1022765117
437,34618324.765394669
474,0.0
2,1,12,21, 0,12,40.00,50.00,WinterDesignDay
8,-6.1
10,3686127.1022765117
437,34573355.479413378
474,0.0
2,1,12,21, 0,12,50.00,60.00,WinterDesignDay
8,-6.1
10,3686127.1022765117
437,34532471.7638157
474,0.0
2,1,12,21, 0,12, 0.00,60.00,WinterDesignDay
243,14.374125516657811
283,21.999999999999984
323,22.00000000000001
2,1,12,21, 0,13, 0.00,10.00,WinterDesignDay
8,-6.1
10,3686127.1022765117
437,33867977.96084373
474,0.0
2,1,12,21, 0,13,10.00,20.00,WinterDesignDay
8,-6.1
10,3686127.1022765117
437,33815012.57803879
474,0.0
2,1,12,21, 0,13,20.00,30.00,WinterDesignDay
8,-6.1
10,3686127.1022765117
437,33772655.06114202
474,0.0
2,1,12,21, 0,13,30.00,40.00,WinterDesignDay
8,-6.1
10,3686127.1022765117
437,33733782.989111449
474,0.0
2,1,12,21, 0,13,40.00,50.00,WinterDesignDay
8,-6.1
10,3686127.1022765117
437,33697511.13147044
474,0.0
2,1,12,21, 0,13,50.00,60.00,WinterDesignDay
8,-6.1
10,3686127.1022765117
437,33663169.92525109
474,0.0