Program Version,EnergyPlus, Version 8.9.0-497bb3e71c, YMD=2018.06.06 17:20
1,5,Environment Title[],Latitude[deg],Longitude[deg],Time Zone[],Elevation[m]
2,8,Day of Simulation[],Month[],Day of Month[],DST Indicator[1=yes 0=no],Hour[],StartMinute[],EndMinute[],DayType
3,5,Cumulative Day of Simulation[],Month[],Day of Month[],DST Indicator[1=yes 0=no],DayType  ! When Daily Report Variables Requested
4,2,Cumulative Days of Simulation[],Month[]  ! When Monthly Report Variables Requested
5,1,Cumulative Days of Simulation[] ! When Run Period Report Variables Requested
6,1,Calendar Year of Simulation[] ! When Annual Report Variables Requested
7,9,Environment,Site Outdoor Air Drybulb Temperature [C] !Monthly [Value,Min,Day,Hour,Minute,Max,Day,Hour,Minute]
8,1,Environment,Site Outdoor Air Wetbulb Temperature [C] !TimeStep
441,1,SP-ATTIC SYS-0 FLR-2 SCH-- UNDEFINED - HPLCMT-CORE ZN,Zone Air Temperature [C] !Hourly
442,7,SP-ATTIC SYS-0 FLR-2 SCH-- UNDEFINED - HPLCMT-CORE ZN,Zone Air Relative Humidity [%] !Daily [Value,Min,Hour,Minute,Max,Hour,Minute]
481,1,SP-DINING SYS-3 FLR-1 SCH-B HPLCMT-SOUTH ZN,Zone Air Temperature [C] !Hourly
482,7,SP-DINING SYS-3 FLR-1 SCH-B HPLCMT-SOUTH ZN,Zone Air Relative Humidity [%] !Daily [Value,Min,Hour,Minute,Max,Hour,Minute]
521,1,SP-KITCHEN SYS-3 FLR-1 SCH-B HPLCMT-NORTH ZN,Zone Air Temperature [C] !Hourly
522,7,SP-KITCHEN SYS-3 FLR-1 SCH-B HPLCMT-NORTH ZN,Zone Air Relative Humidity [%] !Daily [Value,Min,Hour,Minute,Max,Hour,Minute]
10,1,Electricity:Facility [J] !TimeStep
207,1,Gas:Facility [J] !TimeStep
End of Data Dictionary
1,BANFF CS ANN CLG .4% CONDNS DB=>MWB,  51.19,-115.55,  -7.00,1396.90
2,1, 7,21, 0, 1, 0.00,10.00,SummerDesignDay
8,9.168072468920075
10,4196858.871845965
207,833691.7880821112
2,1, 7,21, 0, 1,10.00,20.00,SummerDesignDay
8,9.108695941932968
10,4181687.073281753
207,1212156.1971427943
2,1, 7,21, 0, 1,20.00,30.00,SummerDesignDay
8,9.049198797046217
10,4173885.8651839739
207,9748637.569180849
2,1, 7,21, 0, 1,30.00,40.00,SummerDesignDay
8,8.98957742410667
10,4166279.2959768988
207,1623255.3363628954
2,1, 7,21, 0, 1,40.00,50.00,SummerDesignDay
8,8.929828419558682
10,4159357.290754318
207,1811370.099397873
2,1, 7,21, 0, 1,50.00,60.00,SummerDesignDay
8,8.86995759746822
10,4151869.7923619269
207,10338433.846305414
2,1, 7,21, 0, 1, 0.00,60.00,SummerDesignDay
441,24.676912126231554
481,22.00011620556921
521,23.99843070062383
2,1, 7,21, 0, 2, 0.00,10.00,SummerDesignDay
8,8.829972937101186
10,2400074.542478106
207,2993981.773363894
2,1, 7,21, 0, 2,10.00,20.00,SummerDesignDay
8,8.789932657654998
10,2400073.8431830357
207,3248535.4614790587
2,1, 7,21, 0, 2,20.00,30.00,SummerDesignDay
8,8.749836303015366
10,2400073.14395149
207,3416651.2365791078
2,1, 7,21, 0, 2,30.00,40.00,SummerDesignDay
8,8.709684236896468
10,2400072.677785107
207,11817020.702289023
2,1, 7,21, 0, 2,40.00,50.00,SummerDesignDay
8,8.669475663037103
10,2400072.211653127
207,3729671.100283652
2,1, 7,21, 0, 2,50.00,60.00,SummerDesignDay
8,8.629210899646538
10,2400071.9785511035
207,3881801.3380565869
2,1, 7,21, 0, 2, 0.00,60.00,SummerDesignDay
441,24.43174851759191
481,22.000000898802158
521,23.767608774671414
2,1, 7,21, 0, 3, 0.00,10.00,SummerDesignDay
8,8.598976385016892
10,761788.8394077749
207,12000.0
2,1, 7,21, 0, 3,10.00,20.00,SummerDesignDay
8,8.568710010728186
10,761788.8394077749
207,12000.0
2,1, 7,21, 0, 3,20.00,30.00,SummerDesignDay
8,8.538411680999824
10,761788.8394077749
207,12000.0
2,1, 7,21, 0, 3,30.00,40.00,SummerDesignDay
8,8.508081531011659
10,761788.8394077749
207,7884038.221786958
2,1, 7,21, 0, 3,40.00,50.00,SummerDesignDay
8,8.477719486378878
10,761788.8394077749
207,12000.0
2,1, 7,21, 0, 3,50.00,60.00,SummerDesignDay
8,8.44732213231329
10,761788.8394077749
207,12000.0
2,1, 7,21, 0, 3, 0.00,60.00,SummerDesignDay
441,24.197508673508307
481,20.069618810550869
521,22.817496209140189
2,1, 7,21, 0, 4, 0.00,10.00,SummerDesignDay
8,8.416896179962679
10,761788.8394077749
207,12000.0
2,1, 7,21, 0, 4,10.00,20.00,SummerDesignDay
8,8.386438236498608
10,761788.8394077749
207,12000.0
2,1, 7,21, 0, 4,20.00,30.00,SummerDesignDay
8,8.355948044284068
10,761788.8394077749
207,12000.0
2,1, 7,21, 0, 4,30.00,40.00,SummerDesignDay
8,8.325425972513595
10,761788.8394077749
207,12000.0
2,1, 7,21, 0, 4,40.00,50.00,SummerDesignDay
8,8.294868186717855
10,761788.8394077749
207,12000.0
2,1, 7,21, 0, 4,50.00,60.00,SummerDesignDay
8,8.264281455042731
10,761788.8394077749
207,12000.0
2,1, 7,21, 0, 4, 0.00,60.00,SummerDesignDay
441,23.86884426048553
481,19.20851230234634
521,22.15787137705716
2,1, 7,21, 0, 5, 0.00,10.00,SummerDesignDay
8,8.243873510705246
10,761788.8394077749
207,12000.0
2,1, 7,21, 0, 5,10.00,20.00,SummerDesignDay
8,8.223447913503242
10,761788.8394077749
207,12000.0
2,1, 7,21, 0, 5,20.00,30.00,SummerDesignDay
8,8.203010922189153
10,761788.8394077749
207,12000.0
2,1, 7,21, 0, 5,30.00,40.00,SummerDesignDay
8,8.182556651776391
10,761788.8394077749
207,12000.0
2,1, 7,21, 0, 5,40.00,50.00,SummerDesignDay
8,8.162091031899337
10,761788.8394077749
207,12000.0
2,1, 7,21, 0, 5,50.00,60.00,SummerDesignDay
8,8.141607956176271
10,761788.8394077749
207,12000.0
2,1, 7,21, 0, 5, 0.00,60.00,SummerDesignDay
441,23.507578524511279
481,18.808899829550925
521,21.79486997568328
2,1, 7,21, 0, 6, 0.00,10.00,SummerDesignDay
8,8.162091031899337
10,761788.8394077749
207,12000.0
2,1, 7,21, 0, 6,10.00,20.00,SummerDesignDay
8,8.182556651776391
10,761788.8394077749
207,12000.0
2,1, 7,21, 0, 6,20.00,30.00,SummerDesignDay
8,8.203010922189153
10,761788.8394077749
207,12000.0
2,1, 7,21, 0, 6,30.00,40.00,SummerDesignDay
8,8.223447913503242
10,761788.8394077749
207,12000.0
2,1, 7,21, 0, 6,40.00,50.00,SummerDesignDay
8,8.243873510705246
10,761788.8394077749
207,12000.0
2,1, 7,21, 0, 6,50.00,60.00,SummerDesignDay
8,8.264281455042731
10,761788.8394077749
207,12000.0
2,1, 7,21, 0, 6, 0.00,60.00,SummerDesignDay
441,23.357269439964346
481,18.8169216693594
521,21.563690191678125
2,1, 7,21, 0, 7, 0.00,10.00,SummerDesignDay
8,8.335601378958323
10,761788.8394077749
207,7870547.273599083
2,1, 7,21, 0, 7,10.00,20.00,SummerDesignDay
8,8.406746044412723
10,761788.8394077749
207,12000.0
2,1, 7,21, 0, 7,20.00,30.00,SummerDesignDay
8,8.477719486378878
10,761788.8394077749
207,12000.0
2,1, 7,21, 0, 7,30.00,40.00,SummerDesignDay
8,8.54851569096514
10,761788.8394077749
207,12000.0
2,1, 7,21, 0, 7,40.00,50.00,SummerDesignDay
8,8.61913860111238
10,761788.8394077749
207,12000.0
2,1, 7,21, 0, 7,50.00,60.00,SummerDesignDay
8,8.689588437854562
10,761788.8394077749
207,12000.0
2,1, 7,21, 0, 7, 0.00,60.00,SummerDesignDay
441,23.517439858523706
481,19.403086701064166
521,21.548777527298936
2,1, 7,21, 0, 8, 0.00,10.00,SummerDesignDay
8,8.85996572767301
10,761788.8394077749
207,12000.0
2,1, 7,21, 0, 8,10.00,20.00,SummerDesignDay
8,9.029339776292629
10,761788.8394077749
207,12000.0
2,1, 7,21, 0, 8,20.00,30.00,SummerDesignDay
8,9.197713010531788
10,761788.8394077749
207,12000.0
2,1, 7,21, 0, 8,30.00,40.00,SummerDesignDay
8,9.365096812375848
10,761788.8394077749
207,12000.0
2,1, 7,21, 0, 8,40.00,50.00,SummerDesignDay
8,9.531503361841422
10,761788.8394077749
207,12000.0
2,1, 7,21, 0, 8,50.00,60.00,SummerDesignDay
8,9.696928185032912
10,761788.8394077749
207,12000.0
2,1, 7,21, 0, 8, 0.00,60.00,SummerDesignDay
441,23.834406682357835
481,20.38698375925399
521,21.845353745887427
2,1, 7,21, 0, 9, 0.00,10.00,SummerDesignDay
8,9.880690526256489
10,761788.8394077749
207,12000.0
2,1, 7,21, 0, 9,10.00,20.00,SummerDesignDay
8,10.063247768633849
10,761788.8394077749
207,12000.0
2,1, 7,21, 0, 9,20.00,30.00,SummerDesignDay
8,10.244637637530082
10,761788.8394077749
207,12000.0
2,1, 7,21, 0, 9,30.00,40.00,SummerDesignDay
8,10.424848773563947
10,761788.8394077749
207,12000.0
2,1, 7,21, 0, 9,40.00,50.00,SummerDesignDay
8,10.603898948792967
10,761788.8394077749
207,12000.0
2,1, 7,21, 0, 9,50.00,60.00,SummerDesignDay
8,10.781815460410736
10,761788.8394077749
207,12000.0
2,1, 7,21, 0, 9, 0.00,60.00,SummerDesignDay
441,24.434688326838204
481,21.74975170519944
521,22.45942223093917
2,1, 7,21, 0,10, 0.00,10.00,SummerDesignDay
8,10.940027839575924
10,2400067.551530669
207,8368359.079685789
2,1, 7,21, 0,10,10.00,20.00,SummerDesignDay
8,11.097348520032867
10,2404912.136340395
207,12000.0
2,1, 7,21, 0,10,20.00,30.00,SummerDesignDay
8,11.253779599231992
10,2422192.8888775275
207,500479.08090642208
2,1, 7,21, 0,10,30.00,40.00,SummerDesignDay
8,11.409321810927997
10,2480429.64359145
207,7938775.171139012
2,1, 7,21, 0,10,40.00,50.00,SummerDesignDay
8,11.563977235983597
10,2595860.6685551728
207,12000.0
2,1, 7,21, 0,10,50.00,60.00,SummerDesignDay
8,11.717775704590944
10,2779704.833505138
207,8428573.119618405
2,1, 7,21, 0,10, 0.00,60.00,SummerDesignDay
441,25.132632264957136
481,23.51421238104776
521,23.784653608334819
2,1, 7,21, 0,11, 0.00,10.00,SummerDesignDay
8,11.852759001366481
10,3862304.146289947
207,12000.0
2,1, 7,21, 0,11,10.00,20.00,SummerDesignDay
8,11.987076432520589
10,4005190.072216402
207,12000.0
2,1, 7,21, 0,11,20.00,30.00,SummerDesignDay
8,12.120732532949499
10,4125279.347645595
207,8427626.016867577
2,1, 7,21, 0,11,30.00,40.00,SummerDesignDay
8,12.253732751241758
10,4243005.895756913
207,12000.0
2,1, 7,21, 0,11,40.00,50.00,SummerDesignDay
8,12.386082023068124
10,4361127.067700597
207,8428988.957936375
2,1, 7,21, 0,11,50.00,60.00,SummerDesignDay
8,12.51778518418237
10,4478779.201880773
207,12000.0
2,1, 7,21, 0,11, 0.00,60.00,SummerDesignDay
441,25.93300723191668
481,23.998463279763319
521,23.99943549842489
2,1, 7,21, 0,12, 0.00,10.00,SummerDesignDay
8,12.605223732548529
10,5612026.933800963
207,12000.0
2,1, 7,21, 0,12,10.00,20.00,SummerDesignDay
8,12.692391267573014
10,5662243.947846513
207,12000.0
2,1, 7,21, 0,12,20.00,30.00,SummerDesignDay
8,12.779273250801264
10,5750333.547820263
207,8161722.6305993809
2,1, 7,21, 0,12,30.00,40.00,SummerDesignDay
8,12.865866103603099
10,5841925.612583499
207,12000.0
2,1, 7,21, 0,12,40.00,50.00,SummerDesignDay
8,12.95219170368721
10,5933883.0774469119
207,12000.0
2,1, 7,21, 0,12,50.00,60.00,SummerDesignDay
8,13.038236398727048
10,6025891.2694018329
207,12000.0
2,1, 7,21, 0,12, 0.00,60.00,SummerDesignDay
441,26.62033148607885
481,23.998530336023113
521,23.998993031027437
2,1, 7,21, 0,13, 0.00,10.00,SummerDesignDay
8,13.106863323671514
10,6264741.981711127
207,8241186.918552939
2,1, 7,21, 0,13,10.00,20.00,SummerDesignDay
8,13.175322752935689
10,6362720.60102999
207,12000.0
2,1, 7,21, 0,13,20.00,30.00,SummerDesignDay
8,13.243607077052833
10,6442811.918432292
207,12000.0
2,1, 7,21, 0,13,30.00,40.00,SummerDesignDay
8,13.311716761967764
10,6519291.075719515
207,6859768.395062107
2,1, 7,21, 0,13,40.00,50.00,SummerDesignDay
8,13.379655600288534
10,6594871.1681978129
207,1403487.6056174976
2,1, 7,21, 0,13,50.00,60.00,SummerDesignDay
8,13.447417992098993
10,6674662.699712718
207,12000.0
2,1, 7,21, 0,13, 0.00,60.00,SummerDesignDay
441,27.15941969426051
481,23.997916270406138
521,23.99866912085263
2,1, 7,21, 0,14, 0.00,10.00,SummerDesignDay
8,13.48967636106858
10,6686921.9481449029
207,12000.0
2,1, 7,21, 0,14,10.00,20.00,SummerDesignDay
8,13.531879484215902
10,6750190.317720458
207,8336796.885391002
2,1, 7,21, 0,14,20.00,30.00,SummerDesignDay
8,13.574007141128604
10,6802743.501234072
207,12000.0
2,1, 7,21, 0,14,30.00,40.00,SummerDesignDay
8,13.616064464404
10,6853884.718847996
207,12000.0
2,1, 7,21, 0,14,40.00,50.00,SummerDesignDay
8,13.658067092741993
10,6905559.950405455
207,8336598.748690148
2,1, 7,21, 0,14,50.00,60.00,SummerDesignDay
8,13.699994511440187
10,6962488.506758673
207,12000.0
2,1, 7,21, 0,14, 0.00,60.00,SummerDesignDay
441,27.55404022485668
481,23.997440826009166
521,23.99835775837229
2,1, 7,21, 0,15, 0.00,10.00,SummerDesignDay
8,13.699994511440187
10,6860162.654596716
207,12000.0
2,1, 7,21, 0,15,10.00,20.00,SummerDesignDay
8,13.699994511440187
10,6874802.8493893989
207,8336411.971142706
2,1, 7,21, 0,15,20.00,30.00,SummerDesignDay
8,13.699994511440187
10,6897360.351392989
207,12000.0
2,1, 7,21, 0,15,30.00,40.00,SummerDesignDay
8,13.699994511440187
10,6919307.691534925
207,12000.0
2,1, 7,21, 0,15,40.00,50.00,SummerDesignDay
8,13.699994511440187
10,6941469.753697902
207,8336224.498095025
2,1, 7,21, 0,15,50.00,60.00,SummerDesignDay
8,13.699994511440187
10,6967981.808492344
207,12000.0
2,1, 7,21, 0,15, 0.00,60.00,SummerDesignDay
441,27.783567624618056
481,23.99769668596049
521,23.998418531394177
2,1, 7,21, 0,16, 0.00,10.00,SummerDesignDay
8,13.649672482665246
10,6824000.448532857
207,12000.0
2,1, 7,21, 0,16,10.00,20.00,SummerDesignDay
8,13.599254618304699
10,6766432.816457389
207,8163755.323083073
2,1, 7,21, 0,16,20.00,30.00,SummerDesignDay
8,13.548732274837317
10,6739172.650470457
207,12000.0
2,1, 7,21, 0,16,30.00,40.00,SummerDesignDay
8,13.498121848998244
10,6710118.610752372
207,12000.0
2,1, 7,21, 0,16,40.00,50.00,SummerDesignDay
8,13.447417992098993
10,6680062.319022424
207,12000.0
2,1, 7,21, 0,16,50.00,60.00,SummerDesignDay
8,13.396613561947288
10,6646940.336547832
207,8166305.999108878
2,1, 7,21, 0,16, 0.00,60.00,SummerDesignDay
441,27.82761722428481
481,23.99838171318372
521,23.99879275764545
2,1, 7,21, 0,17, 0.00,10.00,SummerDesignDay
8,13.328721556799375
10,6597492.09443133
207,12000.0
2,1, 7,21, 0,17,10.00,20.00,SummerDesignDay
8,13.260655497638722
10,6534118.019956118
207,12000.0
2,1, 7,21, 0,17,20.00,30.00,SummerDesignDay
8,13.192415093565853
10,6483269.692818311
207,12000.0
2,1, 7,21, 0,17,30.00,40.00,SummerDesignDay
8,13.1239959996646
10,6432135.012441706
207,12000.0
2,1, 7,21, 0,17,40.00,50.00,SummerDesignDay
8,13.055404330198125
10,6380700.930296565
207,1220004.753665173
2,1, 7,21, 0,17,50.00,60.00,SummerDesignDay
8,12.986636312061594
10,6328590.490426686
207,6866540.4569902219
2,1, 7,21, 0,17, 0.00,60.00,SummerDesignDay
441,27.685954152928873
481,23.99888455341399
521,23.999144136677456
2,1, 7,21, 0,18, 0.00,10.00,SummerDesignDay
8,12.900433778114536
10,6302225.789536838
207,12000.0
2,1, 7,21, 0,18,10.00,20.00,SummerDesignDay
8,12.813944208572046
10,6233892.777197164
207,12000.0
2,1, 7,21, 0,18,20.00,30.00,SummerDesignDay
8,12.72717130942231
10,6162879.798440434
207,12000.0
2,1, 7,21, 0,18,30.00,40.00,SummerDesignDay
8,12.640128941445754
10,6090808.784290439
207,12000.0
2,1, 7,21, 0,18,40.00,50.00,SummerDesignDay
8,12.552794961087115
10,6016836.358354805
207,8079814.746273794
2,1, 7,21, 0,18,50.00,60.00,SummerDesignDay
8,12.465173246226799
10,5943038.34960499
207,12000.0
2,1, 7,21, 0,18, 0.00,60.00,SummerDesignDay
441,27.38024337197616
481,23.998885376150097
521,23.999227901611165
2,1, 7,21, 0,19, 0.00,10.00,SummerDesignDay
8,12.333221291970667
10,5950485.072397892
207,12000.0
2,1, 7,21, 0,19,10.00,20.00,SummerDesignDay
8,12.200612095313528
10,5859787.6393364709
207,12000.0
2,1, 7,21, 0,19,20.00,30.00,SummerDesignDay
8,12.067350167237623
10,5759659.613878967
207,765471.6063399832
2,1, 7,21, 0,19,30.00,40.00,SummerDesignDay
8,11.933430192371139
10,5654624.978703647
207,7406146.323833521
2,1, 7,21, 0,19,40.00,50.00,SummerDesignDay
8,11.798846978333849
10,5546784.213978621
207,12000.0
2,1, 7,21, 0,19,50.00,60.00,SummerDesignDay
8,11.66359551943337
10,5431588.796650574
207,12000.0
2,1, 7,21, 0,19, 0.00,60.00,SummerDesignDay
441,26.892296636597775
481,23.99835841578818
521,23.998944171755999
2,1, 7,21, 0,20, 0.00,10.00,SummerDesignDay
8,11.563977235983597
10,5463629.637933085
207,12000.0
2,1, 7,21, 0,20,10.00,20.00,SummerDesignDay
8,11.4640075015588
10,5383599.214026554
207,8246963.60941618
2,1, 7,21, 0,20,20.00,30.00,SummerDesignDay
8,11.363658737456776
10,5284947.423651341
207,12000.0
2,1, 7,21, 0,20,30.00,40.00,SummerDesignDay
8,11.262954363511572
10,5177673.406319114
207,12000.0
2,1, 7,21, 0,20,40.00,50.00,SummerDesignDay
8,11.161866330679086
10,5063818.039229307
207,8250710.596975506
2,1, 7,21, 0,20,50.00,60.00,SummerDesignDay
8,11.060418956681522
10,4944455.477464466
207,12000.0
2,1, 7,21, 0,20, 0.00,60.00,SummerDesignDay
441,26.360663176054456
481,23.997571020830919
521,23.998281375954649
2,1, 7,21, 0,21, 0.00,10.00,SummerDesignDay
8,10.977131286846806
10,4833796.617789151
207,12000.0
2,1, 7,21, 0,21,10.00,20.00,SummerDesignDay
8,10.893588371131973
10,4767836.157202318
207,8520290.87850142
2,1, 7,21, 0,21,20.00,30.00,SummerDesignDay
8,10.809795547365976
10,4660937.854214834
207,12000.0
2,1, 7,21, 0,21,30.00,40.00,SummerDesignDay
8,10.725757967997679
10,4547920.000441138
207,8520268.710682249
2,1, 7,21, 0,21,40.00,50.00,SummerDesignDay
8,10.641455374902039
10,4456957.642401768
207,12000.0
2,1, 7,21, 0,21,50.00,60.00,SummerDesignDay
8,10.5568960542249
10,4384584.643856472
207,4462437.7678454
2,1, 7,21, 0,21, 0.00,60.00,SummerDesignDay
441,25.845893374113304
481,23.99625204342909
521,23.997811229052137
2,1, 7,21, 0,22, 0.00,10.00,SummerDesignDay
8,10.472075212813188
10,4376534.86569524
207,4067960.5845010697
2,1, 7,21, 0,22,10.00,20.00,SummerDesignDay
8,10.386998798904175
10,4369379.366053136
207,12000.0
2,1, 7,21, 0,22,20.00,30.00,SummerDesignDay
8,10.30167171596391
10,4361274.212987998
207,8520284.133063505
2,1, 7,21, 0,22,30.00,40.00,SummerDesignDay
8,10.216073757639599
10,4353668.904176895
207,12000.0
2,1, 7,21, 0,22,40.00,50.00,SummerDesignDay
8,10.130209237813493
10,4345557.462790884
207,8520272.534647206
2,1, 7,21, 0,22,50.00,60.00,SummerDesignDay
8,10.04408463813862
10,4337359.264086819
207,12000.0
2,1, 7,21, 0,22, 0.00,60.00,SummerDesignDay
441,25.395258758414874
481,23.648521544172849
521,23.997515165854229
2,1, 7,21, 0,23, 0.00,10.00,SummerDesignDay
8,9.976916887099673
10,4310429.057536722
207,8604246.969445389
2,1, 7,21, 0,23,10.00,20.00,SummerDesignDay
8,9.909588076458509
10,4304835.936514794
207,12000.0
2,1, 7,21, 0,23,20.00,30.00,SummerDesignDay
8,9.842097633454163
10,4297656.969933072
207,8365306.1334198149
2,1, 7,21, 0,23,30.00,40.00,SummerDesignDay
8,9.77444528670805
10,4289584.725640582
207,260142.80627568716
2,1, 7,21, 0,23,40.00,50.00,SummerDesignDay
8,9.706630051061567
10,4282459.0929097649
207,4874269.494426984
2,1, 7,21, 0,23,50.00,60.00,SummerDesignDay
8,9.638655537901255
10,4274341.177487179
207,3750222.2474574965
2,1, 7,21, 0,23, 0.00,60.00,SummerDesignDay
441,25.152627306482534
481,22.85637135945799
521,23.99772395303903
2,1, 7,21, 0,24, 0.00,10.00,SummerDesignDay
8,9.570513192961173
10,4253183.396814756
207,1368029.1090320184
2,1, 7,21, 0,24,10.00,20.00,SummerDesignDay
8,9.502206337774363
10,4244350.610951884
207,7258013.316174858
2,1, 7,21, 0,24,20.00,30.00,SummerDesignDay
8,9.433734346347242
10,4236645.716737792
207,12000.0
2,1, 7,21, 0,24,30.00,40.00,SummerDesignDay
8,9.365096812375848
10,4227885.887124451
207,8615260.614012659
2,1, 7,21, 0,24,40.00,50.00,SummerDesignDay
8,9.296293065048893
10,4220042.73090634
207,239341.23078323995
2,1, 7,21, 0,24,50.00,60.00,SummerDesignDay
8,9.227322555488419
10,4211378.690122458
207,9084733.561918393
2,1, 7,21, 0,24, 0.00,60.00,SummerDesignDay
441,24.924741995935297
481,22.158533503063308
521,23.998024169636194
3,1, 7,21, 0,SummerDesignDay
442,25.036476196597204,21.793833614552498,16,20,28.496049577363598, 6,20
482,32.98757272751881,29.092854713456697,17,60,38.21076146337768, 6,10
522,31.36902821194286,28.700560721430408,10,15,33.05960275783749,14,60
4,1, 7
7,19.677999999999995,12.999999999999999,21, 5,60,27.4,21,14,60
1,BANFF CS ANN HTG 99.6% CONDNS DB,  51.19,-115.55,  -7.00,1396.90
2,1,12,21, 0, 1, 0.00,10.00,WinterDesignDay
8,-30.3
10,4038346.263653563
207,65023764.68600527
2,1,12,21, 0, 1,10.00,20.00,WinterDesignDay
8,-30.3
10,4038346.263653563
207,65215216.62833453
2,1,12,21, 0, 1,20.00,30.00,WinterDesignDay
8,-30.3
10,4038346.263653563
207,73593174.67245566
2,1,12,21, 0, 1,30.00,40.00,WinterDesignDay
8,-30.3
10,4038346.263653563
207,65204279.212066609
2,1,12,21, 0, 1,40.00,50.00,WinterDesignDay
8,-30.3
10,4038346.263653563
207,65189703.61681544
2,1,12,21, 0, 1,50.00,60.00,WinterDesignDay
8,-30.3
10,4038346.263653563
207,73564846.16972353
2,1,12,21, 0, 1, 0.00,60.00,WinterDesignDay
441,14.050923642469622
481,22.001576002749628
521,22.000430400883248
2,1,12,21, 0, 2, 0.00,10.00,WinterDesignDay
8,-30.3
10,2400067.551530669
207,66441463.5748328
2,1,12,21, 0, 2,10.00,20.00,WinterDesignDay
8,-30.3
10,2400067.551530669
207,66605155.115689668
2,1,12,21, 0, 2,20.00,30.00,WinterDesignDay
8,-30.3
10,2400067.551530669
207,74932697.85257823
2,1,12,21, 0, 2,30.00,40.00,WinterDesignDay
8,-30.3
10,2400067.551530669
207,66678098.32280335
2,1,12,21, 0, 2,40.00,50.00,WinterDesignDay
8,-30.3
10,2400067.551530669
207,66698110.43062057
2,1,12,21, 0, 2,50.00,60.00,WinterDesignDay
8,-30.3
10,2400067.551530669
207,75001275.16945459
2,1,12,21, 0, 2, 0.00,60.00,WinterDesignDay
441,14.089298519549852
481,22.001319913227179
521,22.00064254806735
2,1,12,21, 0, 3, 0.00,10.00,WinterDesignDay
8,-30.3
10,761788.9446348095
207,51628829.18091137
2,1,12,21, 0, 3,10.00,20.00,WinterDesignDay
8,-30.3
10,761788.8394077749
207,54421821.19515352
2,1,12,21, 0, 3,20.00,30.00,WinterDesignDay
8,-30.3
10,761789.0342724541
207,56241191.794101718
2,1,12,21, 0, 3,30.00,40.00,WinterDesignDay
8,-30.3
10,761788.8394077749
207,56948927.173987839
2,1,12,21, 0, 3,40.00,50.00,WinterDesignDay
8,-30.3
10,761788.8394077749
207,57335134.46626211
2,1,12,21, 0, 3,50.00,60.00,WinterDesignDay
8,-30.3
10,761788.8394077749
207,57475929.577410947
2,1,12,21, 0, 3, 0.00,60.00,WinterDesignDay
441,14.087606872206662
481,18.198951617676923
521,18.463874725095964
2,1,12,21, 0, 4, 0.00,10.00,WinterDesignDay
8,-30.3
10,761788.8394077749
207,57625439.08718619
2,1,12,21, 0, 4,10.00,20.00,WinterDesignDay
8,-30.3
10,761788.8394077749
207,57718600.00117646
2,1,12,21, 0, 4,20.00,30.00,WinterDesignDay
8,-30.3
10,761788.8394077749
207,57798107.685895208
2,1,12,21, 0, 4,30.00,40.00,WinterDesignDay
8,-30.3
10,761788.8394077749
207,57870531.83690751
2,1,12,21, 0, 4,40.00,50.00,WinterDesignDay
8,-30.3
10,761788.8394077749
207,57935005.80355703
2,1,12,21, 0, 4,50.00,60.00,WinterDesignDay
8,-30.3
10,761788.8394077749
207,57994990.0489598
2,1,12,21, 0, 4, 0.00,60.00,WinterDesignDay
441,13.942226333115388
481,18.00005462859467
521,18.000010955605153
2,1,12,21, 0, 5, 0.00,10.00,WinterDesignDay
8,-30.3
10,761788.8394077749
207,58052416.75313404
2,1,12,21, 0, 5,10.00,20.00,WinterDesignDay
8,-30.3
10,761788.8394077749
207,58106746.75755108
2,1,12,21, 0, 5,20.00,30.00,WinterDesignDay
8,-30.3
10,761788.8394077749
207,58157961.25858663
2,1,12,21, 0, 5,30.00,40.00,WinterDesignDay
8,-30.3
10,761788.8394077749
207,58207274.75319537
2,1,12,21, 0, 5,40.00,50.00,WinterDesignDay
8,-30.3
10,761788.8394077749
207,60372185.74102371
2,1,12,21, 0, 5,50.00,60.00,WinterDesignDay
8,-30.3
10,761788.8394077749
207,64050309.55744958
2,1,12,21, 0, 5, 0.00,60.00,WinterDesignDay
441,13.70346231992801
481,18.00004481335114
521,18.000015317969667
2,1,12,21, 0, 6, 0.00,10.00,WinterDesignDay
8,-30.3
10,761788.8394077749
207,58349142.14326605
2,1,12,21, 0, 6,10.00,20.00,WinterDesignDay
8,-30.3
10,761788.8394077749
207,58394915.40995755
2,1,12,21, 0, 6,20.00,30.00,WinterDesignDay
8,-30.3
10,761788.8394077749
207,58439997.63117426
2,1,12,21, 0, 6,30.00,40.00,WinterDesignDay
8,-30.3
10,761788.8394077749
207,58484820.8800887
2,1,12,21, 0, 6,40.00,50.00,WinterDesignDay
8,-30.3
10,761788.8394077749
207,58531601.03041769
2,1,12,21, 0, 6,50.00,60.00,WinterDesignDay
8,-30.3
10,761788.8394077749
207,58578447.07460451
2,1,12,21, 0, 6, 0.00,60.00,WinterDesignDay
441,13.458382671645344
481,18.000048397785947
521,18.0000144935909
2,1,12,21, 0, 7, 0.00,10.00,WinterDesignDay
8,-30.3
10,761788.8394077749
207,58625400.00369918
2,1,12,21, 0, 7,10.00,20.00,WinterDesignDay
8,-30.3
10,761788.8394077749
207,58672397.407034907
2,1,12,21, 0, 7,20.00,30.00,WinterDesignDay
8,-30.3
10,761788.8394077749
207,58719389.907494317
2,1,12,21, 0, 7,30.00,40.00,WinterDesignDay
8,-30.3
10,761788.8394077749
207,58766338.27171861
2,1,12,21, 0, 7,40.00,50.00,WinterDesignDay
8,-30.3
10,761788.8394077749
207,58813209.721912648
2,1,12,21, 0, 7,50.00,60.00,WinterDesignDay
8,-30.3
10,761788.8394077749
207,58859975.80477486
2,1,12,21, 0, 7, 0.00,60.00,WinterDesignDay
441,13.224229174560703
481,18.000052302114289
521,18.000015684519349
2,1,12,21, 0, 8, 0.00,10.00,WinterDesignDay
8,-30.3
10,761788.8394077749
207,58906611.18357221
2,1,12,21, 0, 8,10.00,20.00,WinterDesignDay
8,-30.3
10,761788.8394077749
207,58953092.93323741
2,1,12,21, 0, 8,20.00,30.00,WinterDesignDay
8,-30.3
10,761788.8394077749
207,58999400.109950859
2,1,12,21, 0, 8,30.00,40.00,WinterDesignDay
8,-30.3
10,761788.8394077749
207,59045513.47321245
2,1,12,21, 0, 8,40.00,50.00,WinterDesignDay
8,-30.3
10,761788.8394077749
207,59091415.294433858
2,1,12,21, 0, 8,50.00,60.00,WinterDesignDay
8,-30.3
10,761788.8394077749
207,59137089.21577611
2,1,12,21, 0, 8, 0.00,60.00,WinterDesignDay
441,13.004061264016963
481,18.000056109587445
521,18.00001836848112
2,1,12,21, 0, 9, 0.00,10.00,WinterDesignDay
8,-30.3
10,768250.7172719283
207,76208754.69102745
2,1,12,21, 0, 9,10.00,20.00,WinterDesignDay
8,-30.3
10,761788.8394077749
207,61090001.79363544
2,1,12,21, 0, 9,20.00,30.00,WinterDesignDay
8,-30.3
10,761788.8394077749
207,66575062.21862039
2,1,12,21, 0, 9,30.00,40.00,WinterDesignDay
8,-30.3
10,761788.8394077749
207,65235080.46834755
2,1,12,21, 0, 9,40.00,50.00,WinterDesignDay
8,-30.3
10,761788.8394077749
207,65145799.78524162
2,1,12,21, 0, 9,50.00,60.00,WinterDesignDay
8,-30.3
10,761788.8394077749
207,65101028.36902875
2,1,12,21, 0, 9, 0.00,60.00,WinterDesignDay
441,12.809987071405374
481,20.002282141405119
521,19.977770732440989
2,1,12,21, 0,10, 0.00,10.00,WinterDesignDay
8,-30.3
10,2406529.4293948228
207,73789618.22176349
2,1,12,21, 0,10,10.00,20.00,WinterDesignDay
8,-30.3
10,2400067.551530669
207,74926320.08053032
2,1,12,21, 0,10,20.00,30.00,WinterDesignDay
8,-30.3
10,2400067.551530669
207,71075103.7331855
2,1,12,21, 0,10,30.00,40.00,WinterDesignDay
8,-30.3
10,2400067.551530669
207,69853460.52658515
2,1,12,21, 0,10,40.00,50.00,WinterDesignDay
8,-30.3
10,2400067.551530669
207,78095010.98576667
2,1,12,21, 0,10,50.00,60.00,WinterDesignDay
8,-30.3
10,2400067.551530669
207,69468550.56295589
2,1,12,21, 0,10, 0.00,60.00,WinterDesignDay
441,12.696599388824888
481,21.988797943187
521,21.973387249865355
2,1,12,21, 0,11, 0.00,10.00,WinterDesignDay
8,-30.3
10,3219206.9075921156
207,77198651.47558746
2,1,12,21, 0,11,10.00,20.00,WinterDesignDay
8,-30.3
10,3219206.9075921156
207,68574964.09467544
2,1,12,21, 0,11,20.00,30.00,WinterDesignDay
8,-30.3
10,3219206.9075921156
207,75519061.03844598
2,1,12,21, 0,11,30.00,40.00,WinterDesignDay
8,-30.3
10,3219206.9075921156
207,69828415.0283931
2,1,12,21, 0,11,40.00,50.00,WinterDesignDay
8,-30.3
10,3219206.9075921156
207,68313114.7956307
2,1,12,21, 0,11,50.00,60.00,WinterDesignDay
8,-30.3
10,3219206.9075921156
207,76737860.76559547
2,1,12,21, 0,11, 0.00,60.00,WinterDesignDay
441,12.730215145261467
481,22.001895493236338
521,22.000820388027923
2,1,12,21, 0,12, 0.00,10.00,WinterDesignDay
8,-30.3
10,4038346.263653563
207,67159564.13507106
2,1,12,21, 0,12,10.00,20.00,WinterDesignDay
8,-30.3
10,4038346.263653563
207,67239039.85212082
2,1,12,21, 0,12,20.00,30.00,WinterDesignDay
8,-30.3
10,4038346.263653563
207,75349878.20702926
2,1,12,21, 0,12,30.00,40.00,WinterDesignDay
8,-30.3
10,4038346.263653563
207,67091624.67267357
2,1,12,21, 0,12,40.00,50.00,WinterDesignDay
8,-30.3
10,4038346.263653563
207,67021845.16389135
2,1,12,21, 0,12,50.00,60.00,WinterDesignDay
8,-30.3
10,4038346.263653563
207,66966795.64351868
2,1,12,21, 0,12, 0.00,60.00,WinterDesignDay
441,12.84944534537631
481,22.001680473638385
521,22.00070040360934
2,1,12,21, 0,13, 0.00,10.00,WinterDesignDay
8,-30.3
10,4038346.263653563
207,74402462.53503908
2,1,12,21, 0,13,10.00,20.00,WinterDesignDay
8,-30.3
10,4038346.263653563
207,65989679.68622689
2,1,12,21, 0,13,20.00,30.00,WinterDesignDay
8,-30.3
10,4038346.263653563
207,65925367.07878253
2,1,12,21, 0,13,30.00,40.00,WinterDesignDay
8,-30.3
10,4038346.263653563
207,74158306.06937059
2,1,12,21, 0,13,40.00,50.00,WinterDesignDay
8,-30.3
10,4038346.263653563
207,65825477.01578634
2,1,12,21, 0,13,50.00,60.00,WinterDesignDay
8,-30.3
10,4038346.263653563
207,65768996.65066997
2,1,12,21, 0,13, 0.00,60.00,WinterDesignDay
441,12.990113104353903
481,22.001543588757433
521,22.00059810826203
2,1,12,21, 0,14, 0.00,10.00,WinterDesignDay
8,-30.3
10,4038346.263653563
207,74293536.77916098
2,1,12,21, 0,14,10.00,20.00,WinterDesignDay
8,-30.3
10,4038346.263653563
207,65821621.697236049
2,1,12,21, 0,14,20.00,30.00,WinterDesignDay
8,-30.3
10,4038346.263653563
207,65771204.016109477
2,1,12,21, 0,14,30.00,40.00,WinterDesignDay
8,-30.3
10,4038346.263653563
207,74116331.39737615
2,1,12,21, 0,14,40.00,50.00,WinterDesignDay
8,-30.3
10,4038346.263653563
207,65696239.82009443
2,1,12,21, 0,14,50.00,60.00,WinterDesignDay
8,-30.3
10,4038346.263653563
207,65652319.475667778
2,1,12,21, 0,14, 0.00,60.00,WinterDesignDay
441,13.132269971335852
481,22.001790998864668
521,22.00065785173471
2,1,12,21, 0,15, 0.00,10.00,WinterDesignDay
8,-30.3
10,4038346.263653563
207,74586940.47009199
2,1,12,21, 0,15,10.00,20.00,WinterDesignDay
8,-30.3
10,4038346.263653563
207,66181627.232181828
2,1,12,21, 0,15,20.00,30.00,WinterDesignDay
8,-30.3
10,4038346.263653563
207,69096806.824586
2,1,12,21, 0,15,30.00,40.00,WinterDesignDay
8,-30.3
10,4038346.263653563
207,71563678.06551908
2,1,12,21, 0,15,40.00,50.00,WinterDesignDay
8,-30.3
10,4038346.263653563
207,66087500.66517949
2,1,12,21, 0,15,50.00,60.00,WinterDesignDay
8,-30.3
10,4038346.263653563
207,74441385.59024976
2,1,12,21, 0,15, 0.00,60.00,WinterDesignDay
441,13.263906755281023
481,22.001799423302186
521,22.000674772905375
2,1,12,21, 0,16, 0.00,10.00,WinterDesignDay
8,-30.3
10,4038346.263653563
207,66620657.50790483
2,1,12,21, 0,16,10.00,20.00,WinterDesignDay
8,-30.3
10,4038346.263653563
207,66731142.91922782
2,1,12,21, 0,16,20.00,30.00,WinterDesignDay
8,-30.3
10,4038346.263653563
207,66711209.469520207
2,1,12,21, 0,16,30.00,40.00,WinterDesignDay
8,-30.3
10,4038346.263653563
207,74876826.32252662
2,1,12,21, 0,16,40.00,50.00,WinterDesignDay
8,-30.3
10,4038346.263653563