Program Version,EnergyPlus, Version 8.9.0-497bb3e71c, YMD=2018.07.09 18:12
1,5,Environment Title[],Latitude[deg],Longitude[deg],Time Zone[],Elevation[m]
2,8,Day of Simulation[],Month[],Day of Month[],DST Indicator[1=yes 0=no],Hour[],StartMinute[],EndMinute[],DayType
3,5,Cumulative Day of Simulation[],Month[],Day of Month[],DST Indicator[1=yes 0=no],DayType  ! When Daily Report Variables Requested
4,2,Cumulative Days of Simulation[],Month[]  ! When Monthly Report Variables Requested
5,1,Cumulative Days of Simulation[] ! When Run Period Report Variables Requested
6,1,Calendar Year of Simulation[] ! When Annual Report Variables Requested
7,9,Environment,Site Outdoor Air Drybulb Temperature [C] !Monthly [Value,Min,Day,Hour,Minute,Max,Day,Hour,Minute]
8,1,Environment,Site Outdoor Air Wetbulb Temperature [C] !TimeStep
441,1,SP-ATTIC SYS-0 FLR-2 SCH-- UNDEFINED - HPLCMT-CORE ZN,Zone Air Temperature [C] !Hourly
442,7,SP-ATTIC SYS-0 FLR-2 SCH-- UNDEFINED - HPLCMT-CORE ZN,Zone Air Relative Humidity [%] !Daily [Value,Min,Hour,Minute,Max,Hour,Minute]
481,1,SP-DINING SYS-3 FLR-1 SCH-B HPLCMT-SOUTH ZN,Zone Air Temperature [C] !Hourly
482,7,SP-DINING SYS-3 FLR-1 SCH-B HPLCMT-SOUTH ZN,Zone Air Relative Humidity [%] !Daily [Value,Min,Hour,Minute,Max,Hour,Minute]
521,1,SP-KITCHEN SYS-3 FLR-1 SCH-B HPLCMT-NORTH ZN,Zone Air Temperature [C] !Hourly
522,7,SP-KITCHEN SYS-3 FLR-1 SCH-B HPLCMT-NORTH ZN,Zone Air Relative Humidity [%] !Daily [Value,Min,Hour,Minute,Max,Hour,Minute]
10,1,Electricity:Facility [J] !TimeStep
207,1,Gas:Facility [J] !TimeStep
End of Data Dictionary
1,BANFF CS ANN CLG .4% CONDNS DB=>MWB,  51.19,-115.55,  -7.00,1396.90
2,1, 7,21, 0, 1, 0.00,10.00,SummerDesignDay
8,9.168072468920075
10,4426880.256139054
207,794198.0779976377
2,1, 7,21, 0, 1,10.00,20.00,SummerDesignDay
8,9.108695941932968
10,4412045.936018398
207,1174528.0488091959
2,1, 7,21, 0, 1,20.00,30.00,SummerDesignDay
8,9.049198797046217
10,4404338.781047192
207,9706169.379007273
2,1, 7,21, 0, 1,30.00,40.00,SummerDesignDay
8,8.98957742410667
10,4396798.295071044
207,1587364.812966918
2,1, 7,21, 0, 1,40.00,50.00,SummerDesignDay
8,8.929828419558682
10,4389992.278254634
207,1775325.22610387
2,1, 7,21, 0, 1,50.00,60.00,SummerDesignDay
8,8.86995759746822
10,4382653.429252932
207,10296858.433395025
2,1, 7,21, 0, 1, 0.00,60.00,SummerDesignDay
441,24.731158649996265
481,22.00014113193374
521,23.99841594417171
2,1, 7,21, 0, 2, 0.00,10.00,SummerDesignDay
8,8.829972937101186
10,2505821.2914088077
207,2959722.9983301858
2,1, 7,21, 0, 2,10.00,20.00,SummerDesignDay
8,8.789932657654998
10,2505820.594677597
207,3213457.746381243
2,1, 7,21, 0, 2,20.00,30.00,SummerDesignDay
8,8.749836303015366
10,2505819.898010259
207,3381711.502422641
2,1, 7,21, 0, 2,30.00,40.00,SummerDesignDay
8,8.709684236896468
10,2505819.4335532847
207,11777975.88257021
2,1, 7,21, 0, 2,40.00,50.00,SummerDesignDay
8,8.669475663037103
10,2505818.9691309
207,3695800.5260191697
2,1, 7,21, 0, 2,50.00,60.00,SummerDesignDay
8,8.629210899646538
10,2505818.736883481
207,3846258.334704235
2,1, 7,21, 0, 2, 0.00,60.00,SummerDesignDay
441,24.486268434185779
481,21.999997238175497
521,23.926324054304506
2,1, 7,21, 0, 3, 0.00,10.00,SummerDesignDay
8,8.598976385016892
10,786599.9857054488
207,12000.0
2,1, 7,21, 0, 3,10.00,20.00,SummerDesignDay
8,8.568710010728186
10,786599.9857054488
207,12000.0
2,1, 7,21, 0, 3,20.00,30.00,SummerDesignDay
8,8.538411680999824
10,786599.9857054488
207,12000.0
2,1, 7,21, 0, 3,30.00,40.00,SummerDesignDay
8,8.508081531011659
10,786599.9857054488
207,12000.0
2,1, 7,21, 0, 3,40.00,50.00,SummerDesignDay
8,8.477719486378878
10,786599.9857054488
207,7871867.550569089
2,1, 7,21, 0, 3,50.00,60.00,SummerDesignDay
8,8.44732213231329
10,786599.9857054488
207,12000.0
2,1, 7,21, 0, 3, 0.00,60.00,SummerDesignDay
441,24.252078833511136
481,20.084108540139025
521,22.961559335109177
2,1, 7,21, 0, 4, 0.00,10.00,SummerDesignDay
8,8.416896179962679
10,786599.9857054488
207,12000.0
2,1, 7,21, 0, 4,10.00,20.00,SummerDesignDay
8,8.386438236498608
10,786599.9857054488
207,12000.0
2,1, 7,21, 0, 4,20.00,30.00,SummerDesignDay
8,8.355948044284068
10,786599.9857054488
207,12000.0
2,1, 7,21, 0, 4,30.00,40.00,SummerDesignDay
8,8.325425972513595
10,786599.9857054488
207,12000.0
2,1, 7,21, 0, 4,40.00,50.00,SummerDesignDay
8,8.294868186717855
10,786599.9857054488
207,12000.0
2,1, 7,21, 0, 4,50.00,60.00,SummerDesignDay
8,8.264281455042731
10,786599.9857054488
207,12000.0
2,1, 7,21, 0, 4, 0.00,60.00,SummerDesignDay
441,23.92322095550323
481,19.226189720363114
521,22.278628650021579
2,1, 7,21, 0, 5, 0.00,10.00,SummerDesignDay
8,8.243873510705246
10,786599.9857054488
207,12000.0
2,1, 7,21, 0, 5,10.00,20.00,SummerDesignDay
8,8.223447913503242
10,786599.9857054488
207,12000.0
2,1, 7,21, 0, 5,20.00,30.00,SummerDesignDay
8,8.203010922189153
10,786599.9857054488
207,12000.0
2,1, 7,21, 0, 5,30.00,40.00,SummerDesignDay
8,8.182556651776391
10,786599.9857054488
207,12000.0
2,1, 7,21, 0, 5,40.00,50.00,SummerDesignDay
8,8.162091031899337
10,786599.9857054488
207,12000.0
2,1, 7,21, 0, 5,50.00,60.00,SummerDesignDay
8,8.141607956176271
10,786599.9857054488
207,12000.0
2,1, 7,21, 0, 5, 0.00,60.00,SummerDesignDay
441,23.561242061919928
481,18.826542400534053
521,21.909372650314216
2,1, 7,21, 0, 6, 0.00,10.00,SummerDesignDay
8,8.162091031899337
10,786599.9857054488
207,12000.0
2,1, 7,21, 0, 6,10.00,20.00,SummerDesignDay
8,8.182556651776391
10,786599.9857054488
207,12000.0
2,1, 7,21, 0, 6,20.00,30.00,SummerDesignDay
8,8.203010922189153
10,786599.9857054488
207,12000.0
2,1, 7,21, 0, 6,30.00,40.00,SummerDesignDay
8,8.223447913503242
10,786599.9857054488
207,12000.0
2,1, 7,21, 0, 6,40.00,50.00,SummerDesignDay
8,8.243873510705246
10,786599.9857054488
207,12000.0
2,1, 7,21, 0, 6,50.00,60.00,SummerDesignDay
8,8.264281455042731
10,786599.9857054488
207,12000.0
2,1, 7,21, 0, 6, 0.00,60.00,SummerDesignDay
441,23.410150282142057
481,18.834520729220857
521,21.673844129075524
2,1, 7,21, 0, 7, 0.00,10.00,SummerDesignDay
8,8.335601378958323
10,786599.9857054488
207,12000.0
2,1, 7,21, 0, 7,10.00,20.00,SummerDesignDay
8,8.406746044412723
10,786599.9857054488
207,7868505.322837322
2,1, 7,21, 0, 7,20.00,30.00,SummerDesignDay
8,8.477719486378878
10,786599.9857054488
207,12000.0
2,1, 7,21, 0, 7,30.00,40.00,SummerDesignDay
8,8.54851569096514
10,786599.9857054488
207,12000.0
2,1, 7,21, 0, 7,40.00,50.00,SummerDesignDay
8,8.61913860111238
10,786599.9857054488
207,12000.0
2,1, 7,21, 0, 7,50.00,60.00,SummerDesignDay
8,8.689588437854562
10,786599.9857054488
207,12000.0
2,1, 7,21, 0, 7, 0.00,60.00,SummerDesignDay
441,23.56929111492636
481,19.420389200116295
521,21.654657320047645
2,1, 7,21, 0, 8, 0.00,10.00,SummerDesignDay
8,8.85996572767301
10,786599.9857054488
207,12000.0
2,1, 7,21, 0, 8,10.00,20.00,SummerDesignDay
8,9.029339776292629
10,786599.9857054488
207,12000.0
2,1, 7,21, 0, 8,20.00,30.00,SummerDesignDay
8,9.197713010531788
10,786599.9857054488
207,12000.0
2,1, 7,21, 0, 8,30.00,40.00,SummerDesignDay
8,9.365096812375848
10,786599.9857054488
207,12000.0
2,1, 7,21, 0, 8,40.00,50.00,SummerDesignDay
8,9.531503361841422
10,786599.9857054488
207,12000.0
2,1, 7,21, 0, 8,50.00,60.00,SummerDesignDay
8,9.696928185032912
10,786599.9857054488
207,12000.0
2,1, 7,21, 0, 8, 0.00,60.00,SummerDesignDay
441,23.884841482445784
481,20.403981158230456
521,21.946703804535799
2,1, 7,21, 0, 9, 0.00,10.00,SummerDesignDay
8,9.880690526256489
10,786599.9857054488
207,12000.0
2,1, 7,21, 0, 9,10.00,20.00,SummerDesignDay
8,10.063247768633849
10,786599.9857054488
207,12000.0
2,1, 7,21, 0, 9,20.00,30.00,SummerDesignDay
8,10.244637637530082
10,786599.9857054488
207,12000.0
2,1, 7,21, 0, 9,30.00,40.00,SummerDesignDay
8,10.424848773563947
10,786599.9857054488
207,12000.0
2,1, 7,21, 0, 9,40.00,50.00,SummerDesignDay
8,10.603898948792967
10,786599.9857054488
207,12000.0
2,1, 7,21, 0, 9,50.00,60.00,SummerDesignDay
8,10.781815460410736
10,786599.9857054488
207,12000.0
2,1, 7,21, 0, 9, 0.00,60.00,SummerDesignDay
441,24.48367593143887
481,21.766049924315824
521,22.556426710168397
2,1, 7,21, 0,10, 0.00,10.00,SummerDesignDay
8,10.940027839575924
10,2505814.32611085
207,8421332.752861934
2,1, 7,21, 0,10,10.00,20.00,SummerDesignDay
8,11.097348520032867
10,2511839.5746211495
207,12000.0
2,1, 7,21, 0,10,20.00,30.00,SummerDesignDay
8,11.253779599231992
10,2567014.809874003
207,12000.0
2,1, 7,21, 0,10,30.00,40.00,SummerDesignDay
8,11.409321810927997
10,2599123.522678619
207,8420837.986775043
2,1, 7,21, 0,10,40.00,50.00,SummerDesignDay
8,11.563977235983597
10,2737424.257153528
207,12000.0
2,1, 7,21, 0,10,50.00,60.00,SummerDesignDay
8,11.717775704590944
10,2914581.7788033208
207,8422050.450901783
2,1, 7,21, 0,10, 0.00,60.00,SummerDesignDay
441,25.179515654476135
481,23.52436152327641
521,23.833273621561518
2,1, 7,21, 0,11, 0.00,10.00,SummerDesignDay
8,11.852759001366481
10,4043808.551166144
207,12000.0
2,1, 7,21, 0,11,10.00,20.00,SummerDesignDay
8,11.987076432520589
10,4187922.0878089976
207,12000.0
2,1, 7,21, 0,11,20.00,30.00,SummerDesignDay
8,12.120732532949499
10,4308366.745722236
207,8421146.30099586
2,1, 7,21, 0,11,30.00,40.00,SummerDesignDay
8,12.253732751241758
10,4425043.37222319
207,12000.0
2,1, 7,21, 0,11,40.00,50.00,SummerDesignDay
8,12.386082023068124
10,4544563.01076386
207,126682.37548496842
2,1, 7,21, 0,11,50.00,60.00,SummerDesignDay
8,12.51778518418237
10,4661415.020869874
207,8305494.831429611
2,1, 7,21, 0,11, 0.00,60.00,SummerDesignDay
441,25.979895480397628
481,23.99849988556785
521,23.999437434394279
2,1, 7,21, 0,12, 0.00,10.00,SummerDesignDay
8,12.605223732548529
10,5840187.566913848
207,12000.0
2,1, 7,21, 0,12,10.00,20.00,SummerDesignDay
8,12.692391267573014
10,5892225.198543269
207,12000.0
2,1, 7,21, 0,12,20.00,30.00,SummerDesignDay
8,12.779273250801264
10,5980921.724946919
207,8162899.412572419
2,1, 7,21, 0,12,30.00,40.00,SummerDesignDay
8,12.865866103603099
10,6071581.199169417
207,12000.0
2,1, 7,21, 0,12,40.00,50.00,SummerDesignDay
8,12.95219170368721
10,6165223.319199595
207,12000.0
2,1, 7,21, 0,12,50.00,60.00,SummerDesignDay
8,13.038236398727048
10,6257761.623642982
207,12000.0
2,1, 7,21, 0,12, 0.00,60.00,SummerDesignDay
441,26.667877010127588
481,23.99853156169213
521,23.99899036539
2,1, 7,21, 0,13, 0.00,10.00,SummerDesignDay
8,13.106863323671514
10,6496908.537965527
207,8239674.752353757
2,1, 7,21, 0,13,10.00,20.00,SummerDesignDay
8,13.175322752935689
10,6593573.166708159
207,12000.0
2,1, 7,21, 0,13,20.00,30.00,SummerDesignDay
8,13.243607077052833
10,6675378.897588798
207,12000.0
2,1, 7,21, 0,13,30.00,40.00,SummerDesignDay
8,13.311716761967764
10,6752331.789577566
207,12000.0
2,1, 7,21, 0,13,40.00,50.00,SummerDesignDay
8,13.379655600288534
10,6827951.788955509
207,8244379.169155678
2,1, 7,21, 0,13,50.00,60.00,SummerDesignDay
8,13.447417992098993
10,6906779.55247987
207,12000.0
2,1, 7,21, 0,13, 0.00,60.00,SummerDesignDay
441,27.207781936614678
481,23.99791483534499
521,23.998665074082195
2,1, 7,21, 0,14, 0.00,10.00,SummerDesignDay
8,13.48967636106858
10,6920592.4534943909
207,12000.0
2,1, 7,21, 0,14,10.00,20.00,SummerDesignDay
8,13.531879484215902
10,6984190.927433317
207,8332902.015045098
2,1, 7,21, 0,14,20.00,30.00,SummerDesignDay
8,13.574007141128604
10,7035096.578899821
207,12000.0
2,1, 7,21, 0,14,30.00,40.00,SummerDesignDay
8,13.616064464404
10,7088104.741377161
207,12000.0
2,1, 7,21, 0,14,40.00,50.00,SummerDesignDay
8,13.658067092741993
10,7140213.4478243249
207,8332851.9293733299
2,1, 7,21, 0,14,50.00,60.00,SummerDesignDay
8,13.699994511440187
10,7195367.128411244
207,12000.0
2,1, 7,21, 0,14, 0.00,60.00,SummerDesignDay
441,27.603240382190788
481,23.997439846163347
521,23.998356338238695
2,1, 7,21, 0,15, 0.00,10.00,SummerDesignDay
8,13.699994511440187
10,7094952.017912558
207,12000.0
2,1, 7,21, 0,15,10.00,20.00,SummerDesignDay
8,13.699994511440187
10,7109916.68648077
207,8332813.486820285
2,1, 7,21, 0,15,20.00,30.00,SummerDesignDay
8,13.699994511440187
10,7130468.589608199
207,12000.0
2,1, 7,21, 0,15,30.00,40.00,SummerDesignDay
8,13.699994511440187
10,7154447.047900899
207,12000.0
2,1, 7,21, 0,15,40.00,50.00,SummerDesignDay
8,13.699994511440187
10,7176968.259953572
207,8332774.975940279
2,1, 7,21, 0,15,50.00,60.00,SummerDesignDay
8,13.699994511440187
10,7201317.412776029
207,12000.0
2,1, 7,21, 0,15, 0.00,60.00,SummerDesignDay
441,27.83345491048672
481,23.997697919206165
521,23.998416099878239
2,1, 7,21, 0,16, 0.00,10.00,SummerDesignDay
8,13.649672482665246
10,7059378.348169032
207,12000.0
2,1, 7,21, 0,16,10.00,20.00,SummerDesignDay
8,13.599254618304699
10,7002066.090776079
207,12000.0
2,1, 7,21, 0,16,20.00,30.00,SummerDesignDay
8,13.548732274837317
10,6973253.903487102
207,8157351.416017727
2,1, 7,21, 0,16,30.00,40.00,SummerDesignDay
8,13.498121848998244
10,6944874.109146856
207,12000.0
2,1, 7,21, 0,16,40.00,50.00,SummerDesignDay
8,13.447417992098993
10,6915619.851488301
207,12000.0
2,1, 7,21, 0,16,50.00,60.00,SummerDesignDay
8,13.396613561947288
10,6882564.922762943
207,12000.0
2,1, 7,21, 0,16, 0.00,60.00,SummerDesignDay
441,27.87803714103457
481,23.998383832219998
521,23.99878867667222
2,1, 7,21, 0,17, 0.00,10.00,SummerDesignDay
8,13.328721556799375
10,6832201.969488251
207,8086685.055155178
2,1, 7,21, 0,17,10.00,20.00,SummerDesignDay
8,13.260655497638722
10,6768160.4272794979
207,12000.0
2,1, 7,21, 0,17,20.00,30.00,SummerDesignDay
8,13.192415093565853
10,6718592.066191207
207,12000.0
2,1, 7,21, 0,17,30.00,40.00,SummerDesignDay
8,13.1239959996646
10,6667568.046645276
207,12000.0
2,1, 7,21, 0,17,40.00,50.00,SummerDesignDay
8,13.055404330198125
10,6616088.701809498
207,12000.0
2,1, 7,21, 0,17,50.00,60.00,SummerDesignDay
8,12.986636312061594
10,6563926.437466733
207,12000.0
2,1, 7,21, 0,17, 0.00,60.00,SummerDesignDay
441,27.73680480998492
481,23.998886556342418
521,23.999139337519197
2,1, 7,21, 0,18, 0.00,10.00,SummerDesignDay
8,12.900433778114536
10,6535368.01133768
207,8071189.778859327
2,1, 7,21, 0,18,10.00,20.00,SummerDesignDay
8,12.813944208572046
10,6468621.797774256
207,12000.0
2,1, 7,21, 0,18,20.00,30.00,SummerDesignDay
8,12.72717130942231
10,6397950.774604528
207,12000.0
2,1, 7,21, 0,18,30.00,40.00,SummerDesignDay
8,12.640128941445754
10,6325828.757685827
207,12000.0
2,1, 7,21, 0,18,40.00,50.00,SummerDesignDay
8,12.552794961087115
10,6251782.069283697
207,12000.0
2,1, 7,21, 0,18,50.00,60.00,SummerDesignDay
8,12.465173246226799
10,6176797.777195636
207,8078185.419630811
2,1, 7,21, 0,18, 0.00,60.00,SummerDesignDay
441,27.431473663932136
481,23.998886492335627
521,23.999223714279425
2,1, 7,21, 0,19, 0.00,10.00,SummerDesignDay
8,12.333221291970667
10,6184060.772073296
207,12000.0
2,1, 7,21, 0,19,10.00,20.00,SummerDesignDay
8,12.200612095313528
10,6094727.814680855
207,12000.0
2,1, 7,21, 0,19,20.00,30.00,SummerDesignDay
8,12.067350167237623
10,5994954.702582073
207,12000.0
2,1, 7,21, 0,19,30.00,40.00,SummerDesignDay
8,11.933430192371139
10,5890084.4405331439
207,6213274.30620906
2,1, 7,21, 0,19,40.00,50.00,SummerDesignDay
8,11.798846978333849
10,5779638.651720651
207,1960026.1522115044
2,1, 7,21, 0,19,50.00,60.00,SummerDesignDay
8,11.66359551943337
10,5666995.025875398
207,12000.0
2,1, 7,21, 0,19, 0.00,60.00,SummerDesignDay
441,26.94345136995712
481,23.998358339857544
521,23.998941494798939
2,1, 7,21, 0,20, 0.00,10.00,SummerDesignDay
8,11.563977235983597
10,5699330.473631554
207,12000.0
2,1, 7,21, 0,20,10.00,20.00,SummerDesignDay
8,11.4640075015588
10,5619451.678137403
207,8247996.292759403
2,1, 7,21, 0,20,20.00,30.00,SummerDesignDay
8,11.363658737456776
10,5517875.144671533
207,12000.0
2,1, 7,21, 0,20,30.00,40.00,SummerDesignDay
8,11.262954363511572
10,5413529.091383431
207,12000.0
2,1, 7,21, 0,20,40.00,50.00,SummerDesignDay
8,11.161866330679086
10,5300174.63223251
207,12000.0
2,1, 7,21, 0,20,50.00,60.00,SummerDesignDay
8,11.060418956681522
10,5179140.462907821
207,8244243.698765816
2,1, 7,21, 0,20, 0.00,60.00,SummerDesignDay
441,26.40925512292597
481,23.997569099293
521,23.998277884404428
2,1, 7,21, 0,21, 0.00,10.00,SummerDesignDay
8,10.977131286846806
10,5068584.229887054
207,12000.0
2,1, 7,21, 0,21,10.00,20.00,SummerDesignDay
8,10.893588371131973
10,5004304.484075731
207,8089307.672779298
2,1, 7,21, 0,21,20.00,30.00,SummerDesignDay
8,10.809795547365976
10,4894057.347899487
207,434470.8508738996
2,1, 7,21, 0,21,30.00,40.00,SummerDesignDay
8,10.725757967997679
10,4784640.701155796
207,12000.0
2,1, 7,21, 0,21,40.00,50.00,SummerDesignDay
8,10.641455374902039
10,4692049.306484319
207,8512126.194450129
2,1, 7,21, 0,21,50.00,60.00,SummerDesignDay
8,10.5568960542249
10,4611812.732623248
207,12000.0
2,1, 7,21, 0,21, 0.00,60.00,SummerDesignDay
441,25.895109275535736
481,23.99730669999168
521,23.997811431480188
2,1, 7,21, 0,22, 0.00,10.00,SummerDesignDay
8,10.472075212813188
10,4604103.850112958
207,8512118.357569958
2,1, 7,21, 0,22,10.00,20.00,SummerDesignDay
8,10.386998798904175
10,4596537.159616808
207,12000.0
2,1, 7,21, 0,22,20.00,30.00,SummerDesignDay
8,10.30167171596391
10,4589063.007863109
207,8512111.623974592
2,1, 7,21, 0,22,30.00,40.00,SummerDesignDay
8,10.216073757639599
10,4581013.056219454
207,12000.0
2,1, 7,21, 0,22,40.00,50.00,SummerDesignDay
8,10.130209237813493
10,4573580.680845499
207,12000.0
2,1, 7,21, 0,22,50.00,60.00,SummerDesignDay
8,10.04408463813862
10,4565150.312407093
207,8512127.923445324
2,1, 7,21, 0,22, 0.00,60.00,SummerDesignDay
441,25.447027042984165
481,23.66201954373013
521,23.9975183367302
2,1, 7,21, 0,23, 0.00,10.00,SummerDesignDay
8,9.976916887099673
10,4538730.127285044
207,12000.0
2,1, 7,21, 0,23,10.00,20.00,SummerDesignDay
8,9.909588076458509
10,4533219.569335954
207,8605329.939019405
2,1, 7,21, 0,23,20.00,30.00,SummerDesignDay
8,9.842097633454163
10,4525844.995880366
207,12000.0
2,1, 7,21, 0,23,30.00,40.00,SummerDesignDay
8,9.77444528670805
10,4518225.688946118
207,8605116.451376448
2,1, 7,21, 0,23,40.00,50.00,SummerDesignDay
8,9.706630051061567
10,4510747.0033054859
207,12000.0
2,1, 7,21, 0,23,50.00,60.00,SummerDesignDay
8,9.638655537901255
10,4503291.335809879
207,8604901.718146619
2,1, 7,21, 0,23, 0.00,60.00,SummerDesignDay
441,25.205289984413655
481,22.87122623384637
521,23.99771955565872
2,1, 7,21, 0,24, 0.00,10.00,SummerDesignDay
8,9.570513192961173
10,4481862.810997448
207,12000.0
2,1, 7,21, 0,24,10.00,20.00,SummerDesignDay
8,9.502206337774363
10,4473815.575884205
207,8604686.521716455
2,1, 7,21, 0,24,20.00,30.00,SummerDesignDay
8,9.433734346347242
10,4465512.679480541
207,12000.0
2,1, 7,21, 0,24,30.00,40.00,SummerDesignDay
8,9.365096812375848
10,4457613.400347044
207,8604470.865123086
2,1, 7,21, 0,24,40.00,50.00,SummerDesignDay
8,9.296293065048893
10,4449174.788345169
207,183924.44277554245
2,1, 7,21, 0,24,50.00,60.00,SummerDesignDay
8,9.227322555488419
10,4441430.973506022
207,9045779.636305748
2,1, 7,21, 0,24, 0.00,60.00,SummerDesignDay
441,24.978214847782455
481,22.16928800841966
521,23.998013569013634
3,1, 7,21, 0,SummerDesignDay
442,24.96055954108159,21.729976928194895,16,20,28.40492073607536, 6,20
482,32.95392025803145,29.080636825645457,17,60,38.16570445213217, 6,10
522,31.204368843063067,28.452874447584205,10,20,33.01351939178673,14,60
4,1, 7
7,19.677999999999995,12.999999999999999,21, 5,60,27.4,21,14,60
1,BANFF CS ANN HTG 99.6% CONDNS DB,  51.19,-115.55,  -7.00,1396.90
2,1,12,21, 0, 1, 0.00,10.00,WinterDesignDay
8,-30.3
10,4225028.666516252
207,64836758.204906668
2,1,12,21, 0, 1,10.00,20.00,WinterDesignDay
8,-30.3
10,4225028.666516252
207,65022037.074704308
2,1,12,21, 0, 1,20.00,30.00,WinterDesignDay
8,-30.3
10,4225028.666516252
207,73392964.65290608
2,1,12,21, 0, 1,30.00,40.00,WinterDesignDay
8,-30.3
10,4225028.666516252
207,65010783.27353713
2,1,12,21, 0, 1,40.00,50.00,WinterDesignDay
8,-30.3
10,4225028.666516252
207,64995573.70257483
2,1,12,21, 0, 1,50.00,60.00,WinterDesignDay
8,-30.3
10,4225028.666516252
207,73364092.48473272
2,1,12,21, 0, 1, 0.00,60.00,WinterDesignDay
441,14.090726390952277
481,22.001553997344094
521,22.000266620598528
2,1,12,21, 0, 2, 0.00,10.00,WinterDesignDay
8,-30.3
10,2505814.32611085
207,66284519.22052455
2,1,12,21, 0, 2,10.00,20.00,WinterDesignDay
8,-30.3
10,2505814.32611085
207,66451338.73783784
2,1,12,21, 0, 2,20.00,30.00,WinterDesignDay
8,-30.3
10,2505814.32611085
207,74776759.08974315
2,1,12,21, 0, 2,30.00,40.00,WinterDesignDay
8,-30.3
10,2505814.32611085
207,66530491.3171354
2,1,12,21, 0, 2,40.00,50.00,WinterDesignDay
8,-30.3
10,2505814.32611085
207,66550747.18190404
2,1,12,21, 0, 2,50.00,60.00,WinterDesignDay
8,-30.3
10,2505814.32611085
207,74850587.07888246
2,1,12,21, 0, 2, 0.00,60.00,WinterDesignDay
441,14.12955592030653
481,22.001302059345038
521,22.00052426034713
2,1,12,21, 0, 3, 0.00,10.00,WinterDesignDay
8,-30.3
10,786600.1021958033
207,51494291.81438136
2,1,12,21, 0, 3,10.00,20.00,WinterDesignDay
8,-30.3
10,786599.9857054488
207,54385519.87939602
2,1,12,21, 0, 3,20.00,30.00,WinterDesignDay
8,-30.3
10,786600.1798558309
207,56190415.781747657
2,1,12,21, 0, 3,30.00,40.00,WinterDesignDay
8,-30.3
10,786599.9857054488
207,56877759.86940052
2,1,12,21, 0, 3,40.00,50.00,WinterDesignDay
8,-30.3
10,786599.9857054488
207,57269297.76992147
2,1,12,21, 0, 3,50.00,60.00,WinterDesignDay
8,-30.3
10,786599.9857054488
207,57420848.68757787
2,1,12,21, 0, 3, 0.00,60.00,WinterDesignDay
441,14.127275427998685
481,18.199370150673628
521,18.446096176315419
2,1,12,21, 0, 4, 0.00,10.00,WinterDesignDay
8,-30.3
10,786599.9857054488
207,57567892.96858705
2,1,12,21, 0, 4,10.00,20.00,WinterDesignDay
8,-30.3
10,786599.9857054488
207,57662557.06481255
2,1,12,21, 0, 4,20.00,30.00,WinterDesignDay
8,-30.3
10,786599.9857054488
207,57742037.869532119
2,1,12,21, 0, 4,30.00,40.00,WinterDesignDay
8,-30.3
10,786599.9857054488
207,57815451.025709267
2,1,12,21, 0, 4,40.00,50.00,WinterDesignDay
8,-30.3
10,786599.9857054488
207,57881327.73247891
2,1,12,21, 0, 4,50.00,60.00,WinterDesignDay
8,-30.3
10,786599.9857054488
207,57940179.86031124
2,1,12,21, 0, 4, 0.00,60.00,WinterDesignDay
441,13.980422595035917
481,18.000053755518324
521,18.000004660894978
2,1,12,21, 0, 5, 0.00,10.00,WinterDesignDay
8,-30.3
10,786599.9857054488
207,57998631.08430425
2,1,12,21, 0, 5,10.00,20.00,WinterDesignDay
8,-30.3
10,786599.9857054488
207,58053697.595455769
2,1,12,21, 0, 5,20.00,30.00,WinterDesignDay
8,-30.3
10,786599.9857054488
207,58106451.43605256
2,1,12,21, 0, 5,30.00,40.00,WinterDesignDay
8,-30.3
10,786599.9857054488
207,58157157.673093829
2,1,12,21, 0, 5,40.00,50.00,WinterDesignDay
8,-30.3
10,786599.9857054488
207,58205608.63826045
2,1,12,21, 0, 5,50.00,60.00,WinterDesignDay
8,-30.3
10,786599.9857054488
207,62575889.48744883
2,1,12,21, 0, 5, 0.00,60.00,WinterDesignDay
441,13.7401411583922
481,18.000044036397527
521,18.0000119925876
2,1,12,21, 0, 6, 0.00,10.00,WinterDesignDay
8,-30.3
10,786599.9857054488
207,61843846.60678314
2,1,12,21, 0, 6,10.00,20.00,WinterDesignDay
8,-30.3
10,786599.9857054488
207,58344426.82363248
2,1,12,21, 0, 6,20.00,30.00,WinterDesignDay
8,-30.3
10,786599.9857054488
207,58389886.589033108
2,1,12,21, 0, 6,30.00,40.00,WinterDesignDay
8,-30.3
10,786599.9857054488
207,58434878.88587733
2,1,12,21, 0, 6,40.00,50.00,WinterDesignDay
8,-30.3
10,786599.9857054488
207,58479093.417422387
2,1,12,21, 0, 6,50.00,60.00,WinterDesignDay
8,-30.3
10,786599.9857054488
207,58523164.181775528
2,1,12,21, 0, 6, 0.00,60.00,WinterDesignDay
441,13.493638135010832
481,18.00004756004149
521,18.000012153175989
2,1,12,21, 0, 7, 0.00,10.00,WinterDesignDay
8,-30.3
10,786599.9857054488
207,58569269.20632624
2,1,12,21, 0, 7,10.00,20.00,WinterDesignDay
8,-30.3
10,786599.9857054488
207,58615503.06795524
2,1,12,21, 0, 7,20.00,30.00,WinterDesignDay
8,-30.3
10,786599.9857054488
207,58661887.96185756
2,1,12,21, 0, 7,30.00,40.00,WinterDesignDay
8,-30.3
10,786599.9857054488
207,58708348.445112507
2,1,12,21, 0, 7,40.00,50.00,WinterDesignDay
8,-30.3
10,786599.9857054488
207,58754825.31971653
2,1,12,21, 0, 7,50.00,60.00,WinterDesignDay
8,-30.3
10,786599.9857054488
207,58801271.949980657
2,1,12,21, 0, 7, 0.00,60.00,WinterDesignDay
441,13.25811037704618
481,18.00005140345716
521,18.000013186643256
2,1,12,21, 0, 8, 0.00,10.00,WinterDesignDay
8,-30.3
10,786599.9857054488
207,58847650.03139441
2,1,12,21, 0, 8,10.00,20.00,WinterDesignDay
8,-30.3
10,786599.9857054488
207,58893927.029005799
2,1,12,21, 0, 8,20.00,30.00,WinterDesignDay
8,-30.3
10,786599.9857054488
207,58940074.63468003
2,1,12,21, 0, 8,30.00,40.00,WinterDesignDay
8,-30.3
10,786599.9857054488
207,58986067.80236378
2,1,12,21, 0, 8,40.00,50.00,WinterDesignDay
8,-30.3
10,786599.9857054488
207,59031884.11633914
2,1,12,21, 0, 8,50.00,60.00,WinterDesignDay
8,-30.3
10,786599.9857054488
207,59077503.35751124
2,1,12,21, 0, 8, 0.00,60.00,WinterDesignDay
441,13.036422012468952
481,18.00005516389041
521,18.000015566565897
2,1,12,21, 0, 9, 0.00,10.00,WinterDesignDay
8,-30.3
10,792978.6911655011
207,68259314.35540194
2,1,12,21, 0, 9,10.00,20.00,WinterDesignDay
8,-30.3
10,786599.9857054488
207,68880231.04065806
2,1,12,21, 0, 9,20.00,30.00,WinterDesignDay
8,-30.3
10,786599.9857054488
207,66506639.778650868
2,1,12,21, 0, 9,30.00,40.00,WinterDesignDay
8,-30.3
10,786599.9857054488
207,65160887.768469769
2,1,12,21, 0, 9,40.00,50.00,WinterDesignDay
8,-30.3
10,786599.9857054488
207,65073663.26268351
2,1,12,21, 0, 9,50.00,60.00,WinterDesignDay
8,-30.3
10,786599.9857054488
207,65029848.21132936
2,1,12,21, 0, 9, 0.00,60.00,WinterDesignDay
441,12.840744780661746
481,20.00226987940178
521,19.978773690225535
2,1,12,21, 0,10, 0.00,10.00,WinterDesignDay
8,-30.3
10,2512193.0315709027
207,73681233.95903676
2,1,12,21, 0,10,10.00,20.00,WinterDesignDay
8,-30.3
10,2505814.32611085
207,73743987.82127805
2,1,12,21, 0,10,20.00,30.00,WinterDesignDay
8,-30.3
10,2505814.32611085
207,72003190.4047929
2,1,12,21, 0,10,30.00,40.00,WinterDesignDay
8,-30.3
10,2505814.32611085
207,69729436.30951222
2,1,12,21, 0,10,40.00,50.00,WinterDesignDay
8,-30.3
10,2505814.32611085
207,77963515.00753686
2,1,12,21, 0,10,50.00,60.00,WinterDesignDay
8,-30.3
10,2505814.32611085
207,69348201.11228897
2,1,12,21, 0,10, 0.00,60.00,WinterDesignDay
441,12.725604875959777
481,21.988766913370033
521,21.974510602335149
2,1,12,21, 0,11, 0.00,10.00,WinterDesignDay
8,-30.3
10,3365421.496313551
207,77047450.82138407
2,1,12,21, 0,11,10.00,20.00,WinterDesignDay
8,-30.3
10,3365421.496313551
207,68432442.81370946
2,1,12,21, 0,11,20.00,30.00,WinterDesignDay
8,-30.3
10,3365421.496313551
207,68323812.36166287
2,1,12,21, 0,11,30.00,40.00,WinterDesignDay
8,-30.3
10,3365421.496313551
207,76719023.87141225
2,1,12,21, 0,11,40.00,50.00,WinterDesignDay
8,-30.3
10,3365421.496313551
207,68165840.74517636
2,1,12,21, 0,11,50.00,60.00,WinterDesignDay
8,-30.3
10,3365421.496313551
207,76579069.75657889
2,1,12,21, 0,11, 0.00,60.00,WinterDesignDay
441,12.758173473399099
481,22.001871686233469
521,22.00070060176489
2,1,12,21, 0,12, 0.00,10.00,WinterDesignDay
8,-30.3
10,4225028.666516252
207,66993687.23035929
2,1,12,21, 0,12,10.00,20.00,WinterDesignDay
8,-30.3
10,4225028.666516252
207,67063807.67462757
2,1,12,21, 0,12,20.00,30.00,WinterDesignDay
8,-30.3
10,4225028.666516252
207,66984129.94106301
2,1,12,21, 0,12,30.00,40.00,WinterDesignDay
8,-30.3
10,4225028.666516252
207,75094365.82936125
2,1,12,21, 0,12,40.00,50.00,WinterDesignDay
8,-30.3
10,4225028.666516252
207,66844782.79651624
2,1,12,21, 0,12,50.00,60.00,WinterDesignDay
8,-30.3
10,4225028.666516252
207,66786185.06636921
2,1,12,21, 0,12, 0.00,60.00,WinterDesignDay
441,12.877430095863508
481,22.0016608978185
521,22.000564869169485
2,1,12,21, 0,13, 0.00,10.00,WinterDesignDay
8,-30.3
10,4225028.666516252
207,72459674.10419764
2,1,12,21, 0,13,10.00,20.00,WinterDesignDay
8,-30.3
10,4225028.666516252
207,67572096.31132667
2,1,12,21, 0,13,20.00,30.00,WinterDesignDay
8,-30.3
10,4225028.666516252
207,65743564.62784185
2,1,12,21, 0,13,30.00,40.00,WinterDesignDay
8,-30.3
10,4225028.666516252
207,65692056.15124937
2,1,12,21, 0,13,40.00,50.00,WinterDesignDay
8,-30.3
10,4225028.666516252
207,73919460.81373118
2,1,12,21, 0,13,50.00,60.00,WinterDesignDay
8,-30.3
10,4225028.666516252
207,65588536.903517227
2,1,12,21, 0,13, 0.00,60.00,WinterDesignDay
441,13.018981603804014
481,22.00152768822407
521,22.000459967747334
2,1,12,21, 0,14, 0.00,10.00,WinterDesignDay
8,-30.3
10,4225028.666516252
207,65738710.583096567
2,1,12,21, 0,14,10.00,20.00,WinterDesignDay
8,-30.3
10,4225028.666516252
207,74011668.2326734
2,1,12,21, 0,14,20.00,30.00,WinterDesignDay
8,-30.3
10,4225028.666516252
207,65591179.291729647
2,1,12,21, 0,14,30.00,40.00,WinterDesignDay
8,-30.3
10,4225028.666516252
207,70796459.31831837
2,1,12,21, 0,14,40.00,50.00,WinterDesignDay
8,-30.3
10,4225028.666516252
207,68645489.20294859
2,1,12,21, 0,14,50.00,60.00,WinterDesignDay
8,-30.3
10,4225028.666516252
207,65467429.30250032
2,1,12,21, 0,14, 0.00,60.00,WinterDesignDay
441,13.16233394544881
481,22.001772361153628
521,22.000494661683474
2,1,12,21, 0,15, 0.00,10.00,WinterDesignDay
8,-30.3
10,4225028.666516252
207,74395943.55685571
2,1,12,21, 0,15,10.00,20.00,WinterDesignDay
8,-30.3
10,4225028.666516252
207,66003730.89167712
2,1,12,21, 0,15,20.00,30.00,WinterDesignDay
8,-30.3
10,4225028.666516252
207,65967296.97736312
2,1,12,21, 0,15,30.00,40.00,WinterDesignDay
8,-30.3
10,4225028.666516252
207,74315504.68083684
2,1,12,21, 0,15,40.00,50.00,WinterDesignDay
8,-30.3
10,4225028.666516252
207,65908933.692950587
2,1,12,21, 0,15,50.00,60.00,WinterDesignDay
8,-30.3
10,4225028.666516252
207,65874022.231055069
2,1,12,21, 0,15, 0.00,60.00,WinterDesignDay
441,13.295165010572655
481,22.001779530633429
521,22.00050951498044
2,1,12,21, 0,16, 0.00,10.00,WinterDesignDay
8,-30.3
10,4225028.666516252
207,74635047.3560317
2,1,12,21, 0,16,10.00,20.00,WinterDesignDay
8,-30.3
10,4225028.666516252
207,66546954.19963286
2,1,12,21, 0,16,20.00,30.00,WinterDesignDay
8,-30.3
10,4225028.666516252
207,66522792.86020179
2,1,12,21, 0,16,30.00,40.00,WinterDesignDay
8,-30.3
10,4225028.666516252
207,66501437.69167567
2,1,12,21, 0,16,40.00,50.00,WinterDesignDay
8,-30.3
10,4225028.666516252
207,74657773.30494742
2,1,12,21, 0,16,50.00,60.00,WinterDesignDay
8,-30.3