Program Version,EnergyPlus, Version 8.9.0-eba93e8e1b, YMD=2019.08.13 17:09
1,5,Environment Title[],Latitude[deg],Longitude[deg],Time Zone[],Elevation[m]
2,8,Day of Simulation[],Month[],Day of Month[],DST Indicator[1=yes 0=no],Hour[],StartMinute[],EndMinute[],DayType
3,5,Cumulative Day of Simulation[],Month[],Day of Month[],DST Indicator[1=yes 0=no],DayType  ! When Daily Report Variables Requested
4,2,Cumulative Days of Simulation[],Month[]  ! When Monthly Report Variables Requested
5,1,Cumulative Days of Simulation[] ! When Run Period Report Variables Requested
6,1,Calendar Year of Simulation[] ! When Annual Report Variables Requested
7,9,Environment,Site Outdoor Air Drybulb Temperature [C] !Monthly [Value,Min,Day,Hour,Minute,Max,Day,Hour,Minute]
8,1,Environment,Site Outdoor Air Wetbulb Temperature [C] !TimeStep
572,1,ALL_ST=OFFICE ENCLOSED <= 25 M2_FL=BUILDING STORY 1_SCH=A,Zone Air Temperature [C] !Hourly
573,7,ALL_ST=OFFICE ENCLOSED <= 25 M2_FL=BUILDING STORY 1_SCH=A,Zone Air Relative Humidity [%] !Daily [Value,Min,Hour,Minute,Max,Hour,Minute]
612,1,ALL_ST=WAREHOUSE STORAGE AREA MEDIUM TO BULKY PALLETIZED ITEMS_FL=BUILDING STORY 1_SCH=A,Zone Air Temperature [C] !Hourly
613,7,ALL_ST=WAREHOUSE STORAGE AREA MEDIUM TO BULKY PALLETIZED ITEMS_FL=BUILDING STORY 1_SCH=A,Zone Air Relative Humidity [%] !Daily [Value,Min,Hour,Minute,Max,Hour,Minute]
652,1,ALL_ST=WAREHOUSE STORAGE AREA SMALL HAND-CARRIED ITEMS(4)_FL=BUILDING STORY 1_SCH=A,Zone Air Temperature [C] !Hourly
653,7,ALL_ST=WAREHOUSE STORAGE AREA SMALL HAND-CARRIED ITEMS(4)_FL=BUILDING STORY 1_SCH=A,Zone Air Relative Humidity [%] !Daily [Value,Min,Hour,Minute,Max,Hour,Minute]
10,1,Electricity:Facility [J] !TimeStep
End of Data Dictionary
1,RUN PERIOD 1,  48.65,-123.43,  -8.00,  19.50
2,1, 1, 1, 0, 1, 0.00,60.00,Sunday
8,-1.8635562782140467
10,105392460.12089439
2,1, 1, 1, 0, 1, 0.00,60.00,Sunday
572,20.049576681569076
612,18.0
652,18.0
2,1, 1, 1, 0, 2, 0.00,60.00,Sunday
8,-3.4960065164396849
10,112969379.39775151
2,1, 1, 1, 0, 2, 0.00,60.00,Sunday
572,19.792115926567939
612,18.0
652,18.0
2,1, 1, 1, 0, 3, 0.00,60.00,Sunday
8,-4.606234997275662
10,128213573.10437082
2,1, 1, 1, 0, 3, 0.00,60.00,Sunday
572,19.53586599676226
612,18.0
652,18.0
2,1, 1, 1, 0, 4, 0.00,60.00,Sunday
8,-5.281855436270145
10,133390373.34296765
2,1, 1, 1, 0, 4, 0.00,60.00,Sunday
572,19.163046419391127
612,18.0
652,18.0
2,1, 1, 1, 0, 5, 0.00,60.00,Sunday
8,-5.530412646284949
10,136326057.327978
2,1, 1, 1, 0, 5, 0.00,60.00,Sunday
572,18.889948395287914
612,18.0
652,18.0
2,1, 1, 1, 0, 6, 0.00,60.00,Sunday
8,-5.820961688240668
10,130531245.48976952
2,1, 1, 1, 0, 6, 0.00,60.00,Sunday
572,18.713679329082454
612,18.0
652,18.0
2,1, 1, 1, 0, 7, 0.00,60.00,Sunday
8,-4.5721907003117769
10,124147572.94136167
2,1, 1, 1, 0, 7, 0.00,60.00,Sunday
572,18.58066557611683
612,18.0
652,17.999999999999998
2,1, 1, 1, 0, 8, 0.00,60.00,Sunday
8,-5.521562913781716
10,128249204.62139179
2,1, 1, 1, 0, 8, 0.00,60.00,Sunday
572,18.408633352290634
612,18.0
652,18.0
2,1, 1, 1, 0, 9, 0.00,60.00,Sunday
8,-4.1922384641654599
10,122743079.15373227
2,1, 1, 1, 0, 9, 0.00,60.00,Sunday
572,18.25344827231388
612,18.0
652,18.0
2,1, 1, 1, 0,10, 0.00,60.00,Sunday
8,-1.5284371637049974
10,34971025.57161362
2,1, 1, 1, 0,10, 0.00,60.00,Sunday
572,18.80298251231347
612,18.0
652,18.0
2,1, 1, 1, 0,11, 0.00,60.00,Sunday
8,-1.1338024333183428
10,5826264.31236525
2,1, 1, 1, 0,11, 0.00,60.00,Sunday
572,20.333387512060914
612,18.051998241533597
652,19.73189858306849
2,1, 1, 1, 0,12, 0.00,60.00,Sunday
8,-0.638491823826559
10,5833503.796516201
2,1, 1, 1, 0,12, 0.00,60.00,Sunday
572,21.81068474201462
612,18.15991798797322
652,21.437788546422973
2,1, 1, 1, 0,13, 0.00,60.00,Sunday
8,0.26500252542778826
10,5829935.0861749569
2,1, 1, 1, 0,13, 0.00,60.00,Sunday
572,23.086072283718793
612,18.284569586290098
652,22.983325290762097
2,1, 1, 1, 0,14, 0.00,60.00,Sunday
8,0.8763233111669568
10,6469762.628887635
2,1, 1, 1, 0,14, 0.00,60.00,Sunday
572,24.212631225212584
612,18.677801468567954
652,24.595149759127517
2,1, 1, 1, 0,15, 0.00,60.00,Sunday
8,0.35580921965732878
10,6146173.994692595
2,1, 1, 1, 0,15, 0.00,60.00,Sunday
572,25.226151129244597
612,19.136840941866504
652,25.76251976569501
2,1, 1, 1, 0,16, 0.00,60.00,Sunday
8,-0.5268823702568738
10,5822251.246732604
2,1, 1, 1, 0,16, 0.00,60.00,Sunday
572,25.486055150582204
612,19.657205218308407
652,26.12968023633978
2,1, 1, 1, 0,17, 0.00,60.00,Sunday
8,-1.8087583427851524
10,5823001.856037047
2,1, 1, 1, 0,17, 0.00,60.00,Sunday
572,24.337566021891886
612,19.435254844526484
652,24.023166787530337
2,1, 1, 1, 0,18, 0.00,60.00,Sunday
8,-2.5304009972814098
10,5824530.3190769939
2,1, 1, 1, 0,18, 0.00,60.00,Sunday
572,23.636398552208744
612,18.934535877689073
652,21.792700580721755
2,1, 1, 1, 0,19, 0.00,60.00,Sunday
8,-2.4811222646598609
10,15510159.472305892
2,1, 1, 1, 0,19, 0.00,60.00,Sunday
572,22.929787110275976
612,18.347531967469796
652,20.08521479377004
2,1, 1, 1, 0,20, 0.00,60.00,Sunday
8,-2.8233769406228634
10,46249258.45824884
2,1, 1, 1, 0,20, 0.00,60.00,Sunday
572,22.39644269535117
612,18.04978466827182
652,18.75395561312831
2,1, 1, 1, 0,21, 0.00,60.00,Sunday
8,-2.6305375388243128
10,73084084.3221498
2,1, 1, 1, 0,21, 0.00,60.00,Sunday
572,21.855811288465618
612,18.0
652,18.12057200662791
2,1, 1, 1, 0,22, 0.00,60.00,Sunday
8,-3.0233119978862268
10,93967151.59483664
2,1, 1, 1, 0,22, 0.00,60.00,Sunday
572,21.114578412576699
612,18.0
652,18.0
2,1, 1, 1, 0,23, 0.00,60.00,Sunday
8,-2.826789051780635
10,103181708.17998462
2,1, 1, 1, 0,23, 0.00,60.00,Sunday
572,20.843379758798539
612,18.0
652,18.0
2,1, 1, 1, 0,24, 0.00,60.00,Sunday
8,-4.016937937811071
10,112811093.81017627
2,1, 1, 1, 0,24, 0.00,60.00,Sunday
572,20.31493683371801
612,18.0
652,18.0
3,1, 1, 1, 0,Sunday
573,30.29810306865423,23.029245435379047,16,60,35.59073093839392, 9,60
613,21.142206464463304,19.009050286283104,16,60,21.6766159811086,24,30
653,19.966666905994275,13.504601702023845,16,60,22.974975970047134,24,30
2,2, 1, 2, 0, 1, 0.00,60.00,Monday
8,-3.334399152667865
10,104743497.94002152
2,2, 1, 2, 0, 1, 0.00,60.00,Monday
572,20.05521888848999
612,18.0
652,18.0
2,2, 1, 2, 0, 2, 0.00,60.00,Monday
8,-4.137659185142202
10,118471260.10984177
2,2, 1, 2, 0, 2, 0.00,60.00,Monday
572,19.773378161504369
612,18.000000000000005
652,18.0
2,2, 1, 2, 0, 3, 0.00,60.00,Monday
8,-4.016882845638239
10,120983926.92051266
2,2, 1, 2, 0, 3, 0.00,60.00,Monday
572,19.48153740711628
612,18.0
652,18.0
2,2, 1, 2, 0, 4, 0.00,60.00,Monday
8,-4.171462748868308
10,130418847.8094989
2,2, 1, 2, 0, 4, 0.00,60.00,Monday
572,19.191240393165314
612,18.0
652,18.0
2,2, 1, 2, 0, 5, 0.00,60.00,Monday
8,-4.4685735562405759
10,124428951.9143755
2,2, 1, 2, 0, 5, 0.00,60.00,Monday
572,18.973227240106238
612,18.0
652,18.0
2,2, 1, 2, 0, 6, 0.00,60.00,Monday
8,-3.775365332434919
10,144653273.59341339
2,2, 1, 2, 0, 6, 0.00,60.00,Monday
572,18.707721555284459
612,18.0
652,18.0
2,2, 1, 2, 0, 7, 0.00,60.00,Monday
8,-4.369513728768869
10,349435295.37645676
2,2, 1, 2, 0, 7, 0.00,60.00,Monday
572,20.206589153292783
612,19.941519827660036
652,20.13319058965284
2,2, 1, 2, 0, 8, 0.00,60.00,Monday
8,-4.693785810974132
10,476839330.1839397
2,2, 1, 2, 0, 8, 0.00,60.00,Monday
572,21.87140026921313
612,21.656650055498646
652,21.928236077368657
2,2, 1, 2, 0, 9, 0.00,60.00,Monday
8,-2.971531261434618
10,342399793.8028656
2,2, 1, 2, 0, 9, 0.00,60.00,Monday
572,22.149510556847355
612,22.088918834439128
652,22.210068965183923
2,2, 1, 2, 0,10, 0.00,60.00,Monday
8,-1.2825900997613527
10,148497477.2066292
2,2, 1, 2, 0,10, 0.00,60.00,Monday
572,22.232670295506354
612,22.093798210892439
652,22.632498415340338
2,2, 1, 2, 0,11, 0.00,60.00,Monday
8,-0.8484181936504679
10,113855829.90181564
2,2, 1, 2, 0,11, 0.00,60.00,Monday
572,23.710793187630075
612,22.05128180263808
652,23.882591064882413
2,2, 1, 2, 0,12, 0.00,60.00,Monday
8,0.2873657049812132
10,142192295.60064305
2,2, 1, 2, 0,12, 0.00,60.00,Monday
572,23.99973311619308
612,22.159289891326006
652,23.999908526252818
2,2, 1, 2, 0,13, 0.00,60.00,Monday
8,0.8698524594661997
10,130648021.79831337
2,2, 1, 2, 0,13, 0.00,60.00,Monday
572,23.99966308633044
612,22.22318910727021
652,23.99991937960342
2,2, 1, 2, 0,14, 0.00,60.00,Monday
8,1.333750309355447
10,128213155.04850814
2,2, 1, 2, 0,14, 0.00,60.00,Monday
572,23.999623385694148
612,22.262596450335559
652,23.99991259326138
2,2, 1, 2, 0,15, 0.00,60.00,Monday
8,1.4669875310652159
10,130799609.64405781
2,2, 1, 2, 0,15, 0.00,60.00,Monday
572,23.99993869171716
612,22.55854716794847
652,23.999906091848083
2,2, 1, 2, 0,16, 0.00,60.00,Monday
8,0.4354202496434279
10,127716866.70749912
2,2, 1, 2, 0,16, 0.00,60.00,Monday
572,24.00005644257422
612,23.11820695879416
652,23.999571686352554
2,2, 1, 2, 0,17, 0.00,60.00,Monday
8,-2.046688702506347
10,113046742.57087693
2,2, 1, 2, 0,17, 0.00,60.00,Monday
572,24.00086971101028
612,22.846796072755859
652,23.610471516944345
2,2, 1, 2, 0,18, 0.00,60.00,Monday
8,-2.7286612534713758
10,136670301.21629549
2,2, 1, 2, 0,18, 0.00,60.00,Monday
572,24.000012686208366
612,22.24402402616073
652,22.5809392916844
2,2, 1, 2, 0,19, 0.00,60.00,Monday
8,-3.219774793998852
10,214677101.83213983
2,2, 1, 2, 0,19, 0.00,60.00,Monday
572,23.744828253408025
612,22.166125412254197
652,22.412308355531768
2,2, 1, 2, 0,20, 0.00,60.00,Monday
8,-3.075391994003183
10,139902109.83788414
2,2, 1, 2, 0,20, 0.00,60.00,Monday
572,23.532523681384313
612,22.0
652,22.0
2,2, 1, 2, 0,21, 0.00,60.00,Monday
8,-3.4162146470194987
10,169891900.92738728
2,2, 1, 2, 0,21, 0.00,60.00,Monday
572,23.07790250561419
612,22.0
652,22.0
2,2, 1, 2, 0,22, 0.00,60.00,Monday
8,-3.318022291853121
10,10711910.04348075
2,2, 1, 2, 0,22, 0.00,60.00,Monday
572,22.695805732243167
612,20.942025585704906
652,20.097167160024779
2,2, 1, 2, 0,23, 0.00,60.00,Monday
8,-2.3839560904128249
10,9294394.623288127
2,2, 1, 2, 0,23, 0.00,60.00,Monday
572,22.154140372584054
612,19.39826682076376
652,18.64656839043808
2,2, 1, 2, 0,24, 0.00,60.00,Monday
8,-3.0128541754028306
10,12217958.775974343
2,2, 1, 2, 0,24, 0.00,60.00,Monday
572,21.763027762240378
612,18.706579604130846
652,18.07536967103092
3,2, 1, 2, 0,Monday
573,38.136489286731428,29.149275812823416, 8,17,52.29362000888508,24,60
613,19.986906393152684,16.86801937809734, 9,30,25.745539086771126,24,60
653,25.090700549021979,17.56612933211245, 8,59,37.13332367041469,24,24
2,3, 1, 3, 0, 1, 0.00,60.00,Tuesday
8,-2.8268091648413828
10,68996195.53386185
2,3, 1, 3, 0, 1, 0.00,60.00,Tuesday
572,21.3520829412188
612,18.15913162944362
652,18.0
2,3, 1, 3, 0, 2, 0.00,60.00,Tuesday
8,-2.3346743759543817
10,91490874.20704338
2,3, 1, 3, 0, 2, 0.00,60.00,Tuesday
572,21.02996578545155
612,18.0
652,18.0
2,3, 1, 3, 0, 3, 0.00,60.00,Tuesday
8,-2.6260646399762259
10,114121391.29450237
2,3, 1, 3, 0, 3, 0.00,60.00,Tuesday
572,20.457269936982887
612,18.0
652,18.0
2,3, 1, 3, 0, 4, 0.00,60.00,Tuesday
8,-4.257495667007605
10,124440793.45160829
2,3, 1, 3, 0, 4, 0.00,60.00,Tuesday
572,20.09997141366518
612,18.0
652,18.0
2,3, 1, 3, 0, 5, 0.00,60.00,Tuesday
8,-4.5398952998508179
10,126237925.3347642
2,3, 1, 3, 0, 5, 0.00,60.00,Tuesday
572,19.81827593733461
612,18.0
652,17.999999999999998
2,3, 1, 3, 0, 6, 0.00,60.00,Tuesday
8,-2.0413981479996758
10,106512983.72533527
2,3, 1, 3, 0, 6, 0.00,60.00,Tuesday
572,19.635599875589166
612,18.0
652,18.0
2,3, 1, 3, 0, 7, 0.00,60.00,Tuesday
8,-4.104056800918973
10,334912418.8508905
2,3, 1, 3, 0, 7, 0.00,60.00,Tuesday
572,20.015524802101149
612,19.94892571713637
652,20.12442623265596
2,3, 1, 3, 0, 8, 0.00,60.00,Tuesday
8,-3.32555001019812
10,446767068.30842438
2,3, 1, 3, 0, 8, 0.00,60.00,Tuesday
572,22.196034970658457
612,21.68231201958593
652,21.93798831335765
2,3, 1, 3, 0, 9, 0.00,60.00,Tuesday
8,-2.820670993359276
10,322606068.47219195
2,3, 1, 3, 0, 9, 0.00,60.00,Tuesday
572,22.163126972498348
612,22.089647024796976
652,22.213331360874116
2,3, 1, 3, 0,10, 0.00,60.00,Tuesday
8,-1.4043412693637548
10,148285858.8440056
2,3, 1, 3, 0,10, 0.00,60.00,Tuesday
572,22.587735165778818
612,22.09379748944014
652,22.724203379157893
2,3, 1, 3, 0,11, 0.00,60.00,Tuesday
8,-0.41069315729480329
10,110702097.39022322
2,3, 1, 3, 0,11, 0.00,60.00,Tuesday
572,23.763438922333003
612,22.070405423097449
652,23.86686998662168
2,3, 1, 3, 0,12, 0.00,60.00,Tuesday
8,0.9942486000869947
10,131520309.60926949
2,3, 1, 3, 0,12, 0.00,60.00,Tuesday
572,24.002316455917243
612,22.258530119108
652,23.999315780972557
2,3, 1, 3, 0,13, 0.00,60.00,Tuesday
8,1.860794789623943
10,134052550.26068414
2,3, 1, 3, 0,13, 0.00,60.00,Tuesday
572,24.003688734669337
612,22.452281433250989
652,23.999719217836494
2,3, 1, 3, 0,14, 0.00,60.00,Tuesday
8,2.0994471194729327
10,137186616.82654263
2,3, 1, 3, 0,14, 0.00,60.00,Tuesday
572,24.003881661550574
612,22.625914845982974
652,23.999818597070079
2,3, 1, 3, 0,15, 0.00,60.00,Tuesday
8,2.5808415629312164
10,137950424.71028257
2,3, 1, 3, 0,15, 0.00,60.00,Tuesday
572,24.002820785534135
612,23.128277814508964
652,23.999872139788324
2,3, 1, 3, 0,16, 0.00,60.00,Tuesday
8,0.22568606237452655
10,135237810.13927118
2,3, 1, 3, 0,16, 0.00,60.00,Tuesday
572,24.002131729808164
612,23.673973027454946
652,23.999847447054493
2,3, 1, 3, 0,17, 0.00,60.00,Tuesday
8,-1.6088723378578523
10,114759990.06743796
2,3, 1, 3, 0,17, 0.00,60.00,Tuesday
572,24.00251962574346
612,23.40131626732077
652,23.843416738502265
2,3, 1, 3, 0,18, 0.00,60.00,Tuesday
8,-2.090573778091682
10,104058262.66894979
2,3, 1, 3, 0,18, 0.00,60.00,Tuesday
572,24.00129026353492
612,22.846863495975236
652,23.319822473792685
2,3, 1, 3, 0,19, 0.00,60.00,Tuesday
8,-2.2875229708819697
10,138443555.67448405
2,3, 1, 3, 0,19, 0.00,60.00,Tuesday
572,23.798636338337535
612,22.086132775428493
652,22.33023617156657
2,3, 1, 3, 0,20, 0.00,60.00,Tuesday
8,-1.696714612188238
10,157322787.83989615
2,3, 1, 3, 0,20, 0.00,60.00,Tuesday
572,23.667905977790768
612,22.0
652,22.0
2,3, 1, 3, 0,21, 0.00,60.00,Tuesday
8,-1.1108463403669538
10,147464443.2397172
2,3, 1, 3, 0,21, 0.00,60.00,Tuesday
572,23.488281351349376
612,22.0
652,22.0
2,3, 1, 3, 0,22, 0.00,60.00,Tuesday
8,-1.597466640300276
10,10712870.822489985
2,3, 1, 3, 0,22, 0.00,60.00,Tuesday
572,23.138659009399498
612,21.07870151706292
652,20.390963602721607
2,3, 1, 3, 0,23, 0.00,60.00,Tuesday
8,-2.19502634974326
10,8498450.60281375
2,3, 1, 3, 0,23, 0.00,60.00,Tuesday
572,22.69070086126535
612,19.7630372236946
652,19.248268184722649
2,3, 1, 3, 0,24, 0.00,60.00,Tuesday
8,-1.0037470319171212
10,6622182.351693976
2,3, 1, 3, 0,24, 0.00,60.00,Tuesday
572,22.329379128990767
612,19.197715482892144
652,18.50721534661715
3,3, 1, 3, 0,Tuesday
573,49.175767463940839,43.52050762080374,15,60,56.340816518601837, 6,60
613,22.73711637444421,19.582422413055299,16,60,27.60706301432246,24,60
653,30.17284545663098,22.925743257117167, 8,60,39.94642810795367,24,45
2,4, 1, 4, 0, 1, 0.00,60.00,Wednesday
8,-0.7542442415210673
10,12213364.515768892
2,4, 1, 4, 0, 1, 0.00,60.00,Wednesday
572,21.908343806115114
612,18.547619047000784
652,18.047217771348025
2,4, 1, 4, 0, 2, 0.00,60.00,Wednesday
8,-1.300644697138832
10,42164410.71408943
2,4, 1, 4, 0, 2, 0.00,60.00,Wednesday
572,21.530787029927759
612,18.16174635702052
652,18.0
2,4, 1, 4, 0, 3, 0.00,60.00,Wednesday
8,-1.597513336136705
10,88451461.1321688
2,4, 1, 4, 0, 3, 0.00,60.00,Wednesday
572,20.96357274206928
612,18.0
652,18.0
2,4, 1, 4, 0, 4, 0.00,60.00,Wednesday
8,-1.1061589383407038
10,80677641.9787715
2,4, 1, 4, 0, 4, 0.00,60.00,Wednesday
572,20.678319117488557
612,18.0
652,18.0
2,4, 1, 4, 0, 5, 0.00,60.00,Wednesday
8,-0.9047986104975433
10,88548721.34820405
2,4, 1, 4, 0, 5, 0.00,60.00,Wednesday
572,20.39257567139042
612,18.0
652,18.0
2,4, 1, 4, 0, 6, 0.00,60.00,Wednesday
8,-0.6667293201499651
10,69029144.07843381
2,4, 1, 4, 0, 6, 0.00,60.00,Wednesday
572,20.208184868212045
612,18.0
652,18.000000000000005
2,4, 1, 4, 0, 7, 0.00,60.00,Wednesday
8,-0.33230886347053448
10,299939422.4051183
2,4, 1, 4, 0, 7, 0.00,60.00,Wednesday
572,20.031701069783979
612,19.953162890751654
652,20.16842795199242
2,4, 1, 4, 0, 8, 0.00,60.00,Wednesday
8,-0.7124711947696234
10,410744250.69638857
2,4, 1, 4, 0, 8, 0.00,60.00,Wednesday
572,22.261219487580904
612,21.702708357811419
652,21.96036828013251
2,4, 1, 4, 0, 9, 0.00,60.00,Wednesday
8,-0.27847581049253036
10,289580952.0195187
2,4, 1, 4, 0, 9, 0.00,60.00,Wednesday
572,22.169265718079694
612,22.090301241803258
652,22.21689913978469
2,4, 1, 4, 0,10, 0.00,60.00,Wednesday
8,0.13900920525603148
10,215921527.7848566
2,4, 1, 4, 0,10, 0.00,60.00,Wednesday
572,22.231641402005484
612,22.159136467134496
652,22.30186898324481
2,4, 1, 4, 0,11, 0.00,60.00,Wednesday
8,0.704160617575466
10,175748864.79170595
2,4, 1, 4, 0,11, 0.00,60.00,Wednesday
572,22.284700454146575
612,22.15870841802683
652,22.316274954185589
2,4, 1, 4, 0,12, 0.00,60.00,Wednesday
8,1.067434761044647
10,146340334.73567868
2,4, 1, 4, 0,12, 0.00,60.00,Wednesday
572,22.49249294255277
612,22.16457295321257
652,22.34507306057651
2,4, 1, 4, 0,13, 0.00,60.00,Wednesday
8,1.4878273056472949
10,149409200.73912133
2,4, 1, 4, 0,13, 0.00,60.00,Wednesday
572,22.522799521469069
612,22.1658391692869
652,22.35506893081834
2,4, 1, 4, 0,14, 0.00,60.00,Wednesday
8,3.0581089078705969
10,178622826.12128747
2,4, 1, 4, 0,14, 0.00,60.00,Wednesday
572,22.45823615166204
612,22.16797291201548
652,22.370301007669825
2,4, 1, 4, 0,15, 0.00,60.00,Wednesday
8,2.9100457417829146
10,163341923.12294436
2,4, 1, 4, 0,15, 0.00,60.00,Wednesday
572,22.67103997876107
612,22.164184154475227
652,22.352681271550759
2,4, 1, 4, 0,16, 0.00,60.00,Wednesday
8,1.5794912681108855
10,181586589.12744359
2,4, 1, 4, 0,16, 0.00,60.00,Wednesday
572,22.806266159941527
612,22.16427856818248
652,22.355340193685433
2,4, 1, 4, 0,17, 0.00,60.00,Wednesday
8,1.7395321422010968
10,178718115.55035133
2,4, 1, 4, 0,17, 0.00,60.00,Wednesday
572,22.851223780837846
612,22.161292630747999
652,22.340822039147253
2,4, 1, 4, 0,18, 0.00,60.00,Wednesday
8,1.1999991453517827
10,169231106.43394015
2,4, 1, 4, 0,18, 0.00,60.00,Wednesday
572,22.820027955725818
612,22.1608783875415
652,22.338445082737814
2,4, 1, 4, 0,19, 0.00,60.00,Wednesday
8,1.6999967804339656
10,155797955.72139389
2,4, 1, 4, 0,19, 0.00,60.00,Wednesday
572,22.386762545821946
612,22.097450142432537
652,22.265876224152096
2,4, 1, 4, 0,20, 0.00,60.00,Wednesday
8,1.5999983693226264
10,109973479.62151134
2,4, 1, 4, 0,20, 0.00,60.00,Wednesday
572,22.0
612,22.0
652,22.0
2,4, 1, 4, 0,21, 0.00,60.00,Wednesday
8,1.6999970088022505
10,146949187.86604158
2,4, 1, 4, 0,21, 0.00,60.00,Wednesday
572,22.0
612,22.0
652,22.0
2,4, 1, 4, 0,22, 0.00,60.00,Wednesday
8,1.8392818891597962
10,11820714.031106906
2,4, 1, 4, 0,22, 0.00,60.00,Wednesday
572,21.49164922479568
612,21.352426747546056
652,20.706094151927134
2,4, 1, 4, 0,23, 0.00,60.00,Wednesday
8,1.7999973218452566
10,8323901.618176829
2,4, 1, 4, 0,23, 0.00,60.00,Wednesday
572,21.1124110305314
612,20.408662859672174
652,19.807090293416836
2,4, 1, 4, 0,24, 0.00,60.00,Wednesday
8,1.8999955056623075
10,5823601.8728884509
2,4, 1, 4, 0,24, 0.00,60.00,Wednesday
572,20.7902567510486
612,19.998237569362453
652,19.015073055575916
3,4, 1, 4, 0,Wednesday
573,59.96972979971349,49.77847976785284, 8,15,75.62017685341253,24,60
613,26.252960811642465,22.424498413000785, 9,30,31.080389957642674,24,60
653,39.02444412188319,28.250936742852646, 8,60,56.04016231578822,24,60
2,5, 1, 5, 0, 1, 0.00,60.00,Thursday
8,2.3488755353595875
10,8945721.440923782
2,5, 1, 5, 0, 1, 0.00,60.00,Thursday
572,20.38000265429563
612,19.355387039969157
652,18.180188428745788
2,5, 1, 5, 0, 2, 0.00,60.00,Thursday
8,2.5467130854994779
10,13061300.984720866
2,5, 1, 5, 0, 2, 0.00,60.00,Thursday
572,20.097270863676333
612,18.888054952967026
652,18.0
2,5, 1, 5, 0, 3, 0.00,60.00,Thursday
8,1.7999973218452566
10,43036420.64132594
2,5, 1, 5, 0, 3, 0.00,60.00,Thursday
572,19.657493936694
612,18.080006404593524
652,18.0
2,5, 1, 5, 0, 4, 0.00,60.00,Thursday
8,1.5999965390729339
10,92456419.04338627
2,5, 1, 5, 0, 4, 0.00,60.00,Thursday
572,19.358245211401184
612,18.0
652,18.0
2,5, 1, 5, 0, 5, 0.00,60.00,Thursday
8,1.6999974972553285
10,65349559.08080774
2,5, 1, 5, 0, 5, 0.00,60.00,Thursday
572,19.169528917641899
612,18.0
652,18.0
2,5, 1, 5, 0, 6, 0.00,60.00,Thursday
8,1.599997526525678
10,75718517.44125267
2,5, 1, 5, 0, 6, 0.00,60.00,Thursday
572,19.000725193791348
612,18.000000000000005
652,18.0
2,5, 1, 5, 0, 7, 0.00,60.00,Thursday
8,1.5399920587424736
10,280550569.90970316
2,5, 1, 5, 0, 7, 0.00,60.00,Thursday
572,20.26761975413244
612,19.956906231101465
652,20.18996770772762
2,5, 1, 5, 0, 8, 0.00,60.00,Thursday
8,1.7394310997568455
10,427624991.54683718
2,5, 1, 5, 0, 8, 0.00,60.00,Thursday
572,21.887262627023728
612,21.687675254187299
652,21.96201889811105
2,5, 1, 5, 0, 9, 0.00,60.00,Thursday
8,4.553717686850763
10,321739477.9672344
2,5, 1, 5, 0, 9, 0.00,60.00,Thursday
572,22.151569289086419
612,22.0898610625786
652,22.212659591785994
2,5, 1, 5, 0,10, 0.00,60.00,Thursday
8,2.3999980263681586
10,244095756.378037
2,5, 1, 5, 0,10, 0.00,60.00,Thursday
572,22.21525487241811
612,22.160288423926795
652,22.30047911129457
2,5, 1, 5, 0,11, 0.00,60.00,Thursday
8,3.699996305019598
10,224673535.97116266
2,5, 1, 5, 0,11, 0.00,60.00,Thursday
572,22.225884556846176
612,22.16419310616149
652,22.319710285827659
2,5, 1, 5, 0,12, 0.00,60.00,Thursday
8,3.299998549571138
10,166591600.25061134
2,5, 1, 5, 0,12, 0.00,60.00,Thursday
572,22.234476895099779
612,22.169463522521999
652,22.343802598627684
2,5, 1, 5, 0,13, 0.00,60.00,Thursday
8,4.1329473276009669
10,177805389.26088844
2,5, 1, 5, 0,13, 0.00,60.00,Thursday
572,22.24502814657107
612,22.174952744488157
652,22.374804810349678
2,5, 1, 5, 0,14, 0.00,60.00,Thursday
8,5.882610425516309
10,189141398.69538129
2,5, 1, 5, 0,14, 0.00,60.00,Thursday
572,22.246720993076367
612,22.17007501041794
652,22.353104124739234
2,5, 1, 5, 0,15, 0.00,60.00,Thursday
8,6.10649486854425
10,188626382.39906476
2,5, 1, 5, 0,15, 0.00,60.00,Thursday
572,22.24710809454542
612,22.164495601732246
652,22.346529696296249
2,5, 1, 5, 0,16, 0.00,60.00,Thursday
8,6.180166202396904
10,183121987.58109773
2,5, 1, 5, 0,16, 0.00,60.00,Thursday
572,22.332163201095626
612,22.16419964890336
652,22.34765044216308
2,5, 1, 5, 0,17, 0.00,60.00,Thursday
8,6.180253973204258
10,167895603.53099618
2,5, 1, 5, 0,17, 0.00,60.00,Thursday
572,22.47041434744659
612,22.163688832537358
652,22.346543590366623
2,5, 1, 5, 0,18, 0.00,60.00,Thursday
8,6.180275673814312
10,175900378.5893316
2,5, 1, 5, 0,18, 0.00,60.00,Thursday
572,22.42339298400938
612,22.161882615381179
652,22.339022758289699
2,5, 1, 5, 0,19, 0.00,60.00,Thursday
8,6.477768986587491
10,195872590.66277863
2,5, 1, 5, 0,19, 0.00,60.00,Thursday
572,22.267180395357909
612,22.166344801512826
652,22.342398159823295
2,5, 1, 5, 0,20, 0.00,60.00,Thursday
8,6.576937498251256
10,122535335.41500438
2,5, 1, 5, 0,20, 0.00,60.00,Thursday
572,22.0
612,22.0
652,22.0
2,5, 1, 5, 0,21, 0.00,60.00,Thursday
8,6.676078937184515
10,134705365.0215062
2,5, 1, 5, 0,21, 0.00,60.00,Thursday
572,21.999999999999998
612,22.0
652,22.0
2,5, 1, 5, 0,22, 0.00,60.00,Thursday
8,6.676155959175749
10,9256466.130433554
2,5, 1, 5, 0,22, 0.00,60.00,Thursday
572,21.357299334413008
612,21.261798048700674
652,20.467754130047486
2,5, 1, 5, 0,23, 0.00,60.00,Thursday
8,5.69999519988882
10,8092987.443554097
2,5, 1, 5, 0,23, 0.00,60.00,Thursday
572,21.153441068129266
612,20.813471005645796
652,19.71818270787344
2,5, 1, 5, 0,24, 0.00,60.00,Thursday
8,6.426690551540599
10,5648880.002982245
2,5, 1, 5, 0,24, 0.00,60.00,Thursday
572,20.721736200298705
612,20.208583327401983
652,18.872478875460059
3,5, 1, 5, 0,Thursday
573,70.99491977581902,64.57838096725695, 9,60,80.64644103385773, 6,60
613,31.725561746960847,26.87680691662786, 8,25,38.21076809572774,24,60
653,45.79225032066109,36.54584362422064, 8,59,57.116987347934557, 1,30
2,6, 1, 6, 0, 1, 0.00,60.00,Friday
8,6.725843110753327
10,6349117.478481711
2,6, 1, 6, 0, 1, 0.00,60.00,Friday
572,20.181051575474908
612,19.199408313732886
652,18.085241903068299
2,6, 1, 6, 0, 2, 0.00,60.00,Friday
8,6.825570915157205
10,9377707.506395897
2,6, 1, 6, 0, 2, 0.00,60.00,Friday
572,19.951629403132605
612,18.538933917404113
652,18.0
2,6, 1, 6, 0, 3, 0.00,60.00,Friday
8,5.899996994549395
10,12215270.251328117
2,6, 1, 6, 0, 3, 0.00,60.00,Friday
572,19.85024361168607
612,18.384176136761579
652,18.0
2,6, 1, 6, 0, 4, 0.00,60.00,Friday
8,4.799996138235247
10,59139160.152287717
2,6, 1, 6, 0, 4, 0.00,60.00,Friday
572,19.484782596194994
612,18.0
652,18.0
2,6, 1, 6, 0, 5, 0.00,60.00,Friday
8,4.599996797830531
10,76311680.78560497
2,6, 1, 6, 0, 5, 0.00,60.00,Friday
572,19.23478273129872
612,18.0
652,18.0
2,6, 1, 6, 0, 6, 0.00,60.00,Friday
8,4.699993782758949
10,61807008.32591886
2,6, 1, 6, 0, 6, 0.00,60.00,Friday
572,19.066259750277689
612,18.0
652,18.0
2,6, 1, 6, 0, 7, 0.00,60.00,Friday
8,4.731388326731834
10,261241644.32139648
2,6, 1, 6, 0, 7, 0.00,60.00,Friday
572,20.281510494648413
612,19.962405773138376
652,20.20209579535253
2,6, 1, 6, 0, 8, 0.00,60.00,Friday
8,4.432211396711547
10,385170429.4028332
2,6, 1, 6, 0, 8, 0.00,60.00,Friday
572,21.896864408408026
612,21.711154969684473
652,21.989972017574499
2,6, 1, 6, 0, 9, 0.00,60.00,Friday
8,4.599995625100042
10,267896427.1637949
2,6, 1, 6, 0, 9, 0.00,60.00,Friday
572,22.15306911761474
612,22.098235124758355
652,22.219614943471119
2,6, 1, 6, 0,10, 0.00,60.00,Friday
8,5.230029229052835
10,193152004.98447827
2,6, 1, 6, 0,10, 0.00,60.00,Friday
572,22.217383323914324
612,22.162333598265155
652,22.306973920785219
2,6, 1, 6, 0,11, 0.00,60.00,Friday
8,5.230031069657367
10,155946835.8159555
2,6, 1, 6, 0,11, 0.00,60.00,Friday
572,22.229275592081366
612,22.168765209223378
652,22.336828072084324
2,6, 1, 6, 0,12, 0.00,60.00,Friday
8,5.529182005260592
10,156357452.6882166
2,6, 1, 6, 0,12, 0.00,60.00,Friday
572,22.236852397718804
612,22.171335045077279
652,22.35196350429288
2,6, 1, 6, 0,13, 0.00,60.00,Friday
8,5.899996374359502
10,155280273.8221159
2,6, 1, 6, 0,13, 0.00,60.00,Friday
572,22.24379708388154
612,22.173225127710326
652,22.364100859790658
2,6, 1, 6, 0,14, 0.00,60.00,Friday
8,6.027742306947535
10,142175717.5942629
2,6, 1, 6, 0,14, 0.00,60.00,Friday
572,22.24962622257752
612,22.1746636219585
652,22.372466872908146
2,6, 1, 6, 0,15, 0.00,60.00,Friday
8,6.027742306947535
10,123840632.21720459
2,6, 1, 6, 0,15, 0.00,60.00,Friday
572,22.45848712711287
612,22.169739887074088
652,22.368940007226809
2,6, 1, 6, 0,16, 0.00,60.00,Friday
8,6.027725501453532
10,153240150.6072332
2,6, 1, 6, 0,16, 0.00,60.00,Friday
572,22.558757397026424
612,22.166797829817996
652,22.35934174995841
2,6, 1, 6, 0,17, 0.00,60.00,Friday
8,7.024919839495878
10,166077379.13023696
2,6, 1, 6, 0,17, 0.00,60.00,Friday
572,22.574212681514138
612,22.164155007083687
652,22.348889230766184
2,6, 1, 6, 0,18, 0.00,60.00,Friday
8,7.292842592173826
10,186117278.67328839
2,6, 1, 6, 0,18, 0.00,60.00,Friday
572,22.436861507766353
612,22.16193979000088
652,22.339415979784076
2,6, 1, 6, 0,19, 0.00,60.00,Friday
8,7.314231156779633
10,158208697.0747495
2,6, 1, 6, 0,19, 0.00,60.00,Friday
572,22.273635049422418
612,22.169474413864927
652,22.35580122471552
2,6, 1, 6, 0,20, 0.00,60.00,Friday
8,7.4467890615619078
10,114717073.30526386
2,6, 1, 6, 0,20, 0.00,60.00,Friday
572,22.0
612,22.0
652,22.0
2,6, 1, 6, 0,21, 0.00,60.00,Friday
8,7.645620852720777
10,145911936.33236165
2,6, 1, 6, 0,21, 0.00,60.00,Friday
572,22.0
612,22.0
652,21.999999999999994
2,6, 1, 6, 0,22, 0.00,60.00,Friday
8,7.745063642166335
10,9229373.225695443
2,6, 1, 6, 0,22, 0.00,60.00,Friday
572,21.41616735560329
612,21.30750841595279
652,20.56111787460452
2,6, 1, 6, 0,23, 0.00,60.00,Friday
8,7.82259715792692
10,8615614.879649437
2,6, 1, 6, 0,23, 0.00,60.00,Friday
572,20.936991391127117
612,20.259677480785176
652,19.4139697622165
2,6, 1, 6, 0,24, 0.00,60.00,Friday
8,7.922305572063077
10,5565960.094291553
2,6, 1, 6, 0,24, 0.00,60.00,Friday
572,20.695968083587418
612,19.837862386081825
652,18.79336329610884
3,6, 1, 6, 0,Friday
573,72.91261141975476,65.3894019978146, 9,60,79.61628569943523, 6,60
613,38.01986888451464,33.475785273199488, 9,30,44.24914564979801,24,60
653,48.40461508654415,38.46251196133295, 9,30,57.18861966829126,24,45
2,7, 1, 7, 0, 1, 0.00,60.00,Saturday
8,7.943803671730892
10,5584791.9113212949
2,7, 1, 7, 0, 1, 0.00,60.00,Saturday
572,20.40712466594421
612,19.349276253565657
652,18.222128853847033
2,7, 1, 7, 0, 2, 0.00,60.00,Saturday
8,7.922256862303217
10,14095205.998980573
2,7, 1, 7, 0, 2, 0.00,60.00,Saturday
572,19.950507168726078
612,18.454613078746353
652,18.0
2,7, 1, 7, 0, 3, 0.00,60.00,Saturday
8,7.922244718726373
10,23593308.244422586
2,7, 1, 7, 0, 3, 0.00,60.00,Saturday
572,19.778508734436497
612,18.19508582439652
652,18.0
2,7, 1, 7, 0, 4, 0.00,60.00,Saturday
8,8.063393772482442
10,41176511.4337104
2,7, 1, 7, 0, 4, 0.00,60.00,Saturday
572,19.57233430745737
612,18.0
652,17.999999999999998
2,7, 1, 7, 0, 5, 0.00,60.00,Saturday
8,7.722705856723715
10,65687309.96044078
2,7, 1, 7, 0, 5, 0.00,60.00,Saturday
572,19.356601451168584
612,18.000000000000005
652,18.0
2,7, 1, 7, 0, 6, 0.00,60.00,Saturday
8,7.722672747768921
10,59187452.71408051
2,7, 1, 7, 0, 6, 0.00,60.00,Saturday
572,19.175327468678174
612,18.000000000000005
652,18.0
2,7, 1, 7, 0, 7, 0.00,60.00,Saturday
8,7.423499393353325
10,60411450.76628671
2,7, 1, 7, 0, 7, 0.00,60.00,Saturday
572,19.046572445411344
612,18.0
652,18.0
2,7, 1, 7, 0, 8, 0.00,60.00,Saturday
8,7.744528494460702
10,58045993.89799525
2,7, 1, 7, 0, 8, 0.00,60.00,Saturday
572,18.939789514729719
612,18.0
652,18.0
2,7, 1, 7, 0, 9, 0.00,60.00,Saturday
8,7.98376864460278
10,65564877.4876526
2,7, 1, 7, 0, 9, 0.00,60.00,Saturday
572,18.803337423417358
612,18.0
652,18.0
2,7, 1, 7, 0,10, 0.00,60.00,Saturday
8,7.083420100812408
10,61394940.14989614
2,7, 1, 7, 0,10, 0.00,60.00,Saturday
572,18.681380054663433
612,18.0
652,18.0
2,7, 1, 7, 0,11, 0.00,60.00,Saturday
8,6.6626156541748389
10,61965428.89479644
2,7, 1, 7, 0,11, 0.00,60.00,Saturday
572,18.60203635312148
612,18.0
652,18.0