Program Version,EnergyPlus, Version 8.9.0-eba93e8e1b, YMD=2018.10.31 18:41
1,5,Environment Title[],Latitude[deg],Longitude[deg],Time Zone[],Elevation[m]
2,8,Day of Simulation[],Month[],Day of Month[],DST Indicator[1=yes 0=no],Hour[],StartMinute[],EndMinute[],DayType
3,5,Cumulative Day of Simulation[],Month[],Day of Month[],DST Indicator[1=yes 0=no],DayType  ! When Daily Report Variables Requested
4,2,Cumulative Days of Simulation[],Month[]  ! When Monthly Report Variables Requested
5,1,Cumulative Days of Simulation[] ! When Run Period Report Variables Requested
6,1,Calendar Year of Simulation[] ! When Annual Report Variables Requested
7,9,Environment,Site Outdoor Air Drybulb Temperature [C] !Monthly [Value,Min,Day,Hour,Minute,Max,Day,Hour,Minute]
8,1,Environment,Site Outdoor Air Wetbulb Temperature [C] !TimeStep
555,1,SP-ATTIC SYS-0 FLR-2 SCH-- UNDEFINED - HPLCMT-CORE ZN,Zone Air Temperature [C] !Hourly
556,7,SP-ATTIC SYS-0 FLR-2 SCH-- UNDEFINED - HPLCMT-CORE ZN,Zone Air Relative Humidity [%] !Daily [Value,Min,Hour,Minute,Max,Hour,Minute]
595,1,SP-CORE_ZN SYS-3 FLR-1 SCH-A HPLCMT-CORE ZN,Zone Air Temperature [C] !Hourly
596,7,SP-CORE_ZN SYS-3 FLR-1 SCH-A HPLCMT-CORE ZN,Zone Air Relative Humidity [%] !Daily [Value,Min,Hour,Minute,Max,Hour,Minute]
635,1,SP-PERIMETER_ZN_1 SYS-3 FLR-1 SCH-A HPLCMT-SOUTH ZN,Zone Air Temperature [C] !Hourly
636,7,SP-PERIMETER_ZN_1 SYS-3 FLR-1 SCH-A HPLCMT-SOUTH ZN,Zone Air Relative Humidity [%] !Daily [Value,Min,Hour,Minute,Max,Hour,Minute]
675,1,SP-PERIMETER_ZN_2 SYS-3 FLR-1 SCH-A HPLCMT-EAST ZN,Zone Air Temperature [C] !Hourly
676,7,SP-PERIMETER_ZN_2 SYS-3 FLR-1 SCH-A HPLCMT-EAST ZN,Zone Air Relative Humidity [%] !Daily [Value,Min,Hour,Minute,Max,Hour,Minute]
715,1,SP-PERIMETER_ZN_3 SYS-3 FLR-1 SCH-A HPLCMT-NORTH ZN,Zone Air Temperature [C] !Hourly
716,7,SP-PERIMETER_ZN_3 SYS-3 FLR-1 SCH-A HPLCMT-NORTH ZN,Zone Air Relative Humidity [%] !Daily [Value,Min,Hour,Minute,Max,Hour,Minute]
755,1,SP-PERIMETER_ZN_4 SYS-3 FLR-1 SCH-A HPLCMT-WEST ZN,Zone Air Temperature [C] !Hourly
756,7,SP-PERIMETER_ZN_4 SYS-3 FLR-1 SCH-A HPLCMT-WEST ZN,Zone Air Relative Humidity [%] !Daily [Value,Min,Hour,Minute,Max,Hour,Minute]
10,1,Electricity:Facility [J] !TimeStep
321,1,Gas:Facility [J] !TimeStep
End of Data Dictionary
1,EDMONTON INTL AP ANN CLG .4% CONDNS DB=>MWB,  53.31,-113.58,  -7.00, 723.30
2,1, 7,21, 0, 1, 0.00,10.00,SummerDesignDay
8,14.408921504545056
10,902859.3794974712
321,12000.0
2,1, 7,21, 0, 1,10.00,20.00,SummerDesignDay
8,14.363956333840566
10,902859.3794974712
321,53772.863229005925
2,1, 7,21, 0, 1,20.00,30.00,SummerDesignDay
8,14.318916788014189
10,902859.3794974712
321,542638.0962064432
2,1, 7,21, 0, 1,30.00,40.00,SummerDesignDay
8,14.273802755837496
10,902859.3794974712
321,12000.0
2,1, 7,21, 0, 1,40.00,50.00,SummerDesignDay
8,14.228614054951587
10,902859.3794974712
321,587135.0648570287
2,1, 7,21, 0, 1,50.00,60.00,SummerDesignDay
8,14.183350324714694
10,902859.3794974712
321,12000.0
2,1, 7,21, 0, 1, 0.00,60.00,SummerDesignDay
555,24.741682888498106
595,24.44919951151458
635,24.57511699062266
675,24.760494262925325
715,24.410163847137559
755,25.308733769509755
2,1, 7,21, 0, 2, 0.00,10.00,SummerDesignDay
8,14.153134718658599
10,902859.3794974712
321,590215.6812412419
2,1, 7,21, 0, 2,10.00,20.00,SummerDesignDay
8,14.122885717757236
10,902859.3794974712
321,12000.0
2,1, 7,21, 0, 2,20.00,30.00,SummerDesignDay
8,14.092597500544113
10,902859.3794974712
321,367207.4972833981
2,1, 7,21, 0, 2,30.00,40.00,SummerDesignDay
8,14.062281266428409
10,902859.3794974712
321,233560.6431641944
2,1, 7,21, 0, 2,40.00,50.00,SummerDesignDay
8,14.031931527690617
10,902859.3794974712
321,12000.0
2,1, 7,21, 0, 2,50.00,60.00,SummerDesignDay
8,14.001542516648158
10,902859.3794974712
321,585278.8770787041
2,1, 7,21, 0, 2, 0.00,60.00,SummerDesignDay
555,24.53137980788655
595,24.232313249079828
635,24.312881422281238
675,24.505714125724638
715,24.161441489155164
755,25.02205667950784
2,1, 7,21, 0, 3, 0.00,10.00,SummerDesignDay
8,13.978731556127439
10,902859.3794974712
321,12000.0
2,1, 7,21, 0, 3,10.00,20.00,SummerDesignDay
8,13.95590132758737
10,902859.3794974712
321,588472.0205668471
2,1, 7,21, 0, 3,20.00,30.00,SummerDesignDay
8,13.93305210332818
10,902859.3794974712
321,12000.0
2,1, 7,21, 0, 3,30.00,40.00,SummerDesignDay
8,13.910183929510893
10,902859.3794974712
321,591472.038733384
2,1, 7,21, 0, 3,40.00,50.00,SummerDesignDay
8,13.887299512014089
10,902859.3794974712
321,12000.0
2,1, 7,21, 0, 3,50.00,60.00,SummerDesignDay
8,13.864393099219983
10,902859.3794974712
321,139277.0615707767
2,1, 7,21, 0, 3, 0.00,60.00,SummerDesignDay
555,24.33571227491899
595,24.042206802968395
635,24.076797806516166
675,24.274298435344418
715,23.94177553154518
755,24.75939507310244
2,1, 7,21, 0, 4, 0.00,10.00,SummerDesignDay
8,13.841467737397938
10,902859.3794974712
321,458044.11647602196
2,1, 7,21, 0, 4,10.00,20.00,SummerDesignDay
8,13.818523144723767
10,902859.3794974712
321,12000.0
2,1, 7,21, 0, 4,20.00,30.00,SummerDesignDay
8,13.795559255229476
10,902859.3794974712
321,586654.03442166
2,1, 7,21, 0, 4,30.00,40.00,SummerDesignDay
8,13.772576325114985
10,902859.3794974712
321,12000.0
2,1, 7,21, 0, 4,40.00,50.00,SummerDesignDay
8,13.749574066201042
10,902859.3794974712
321,589764.5449019718
2,1, 7,21, 0, 4,50.00,60.00,SummerDesignDay
8,13.726552713863889
10,902859.3794974712
321,12000.0
2,1, 7,21, 0, 4, 0.00,60.00,SummerDesignDay
555,24.146362903363639
595,23.86324656527954
635,23.858506188628625
675,24.05663690520049
715,23.737666223298719
755,24.512337575075767
2,1, 7,21, 0, 5, 0.00,10.00,SummerDesignDay
8,13.711195251010303
10,902859.3794974712
321,443483.77182128027
2,1, 7,21, 0, 5,10.00,20.00,SummerDesignDay
8,13.695826455893389
10,902859.3794974712
321,158477.02067201367
2,1, 7,21, 0, 5,20.00,30.00,SummerDesignDay
8,13.680451907720404
10,902859.3794974712
321,12000.0
2,1, 7,21, 0, 5,30.00,40.00,SummerDesignDay
8,13.665068584585312
10,902859.3794974712
321,584778.385940954
2,1, 7,21, 0, 5,40.00,50.00,SummerDesignDay
8,13.649674187846486
10,902859.3794974712
321,12000.0
2,1, 7,21, 0, 5,50.00,60.00,SummerDesignDay
8,13.634273810837755
10,902859.3794974712
321,588000.4930164125
2,1, 7,21, 0, 5, 0.00,60.00,SummerDesignDay
555,23.97859219597711
595,23.69266936967593
635,23.657340839268746
675,23.897603227853169
715,23.576678445741519
755,24.280799156661414
2,1, 7,21, 0, 6, 0.00,10.00,SummerDesignDay
8,13.649674187846486
10,902859.3794974712
321,12000.0
2,1, 7,21, 0, 6,10.00,20.00,SummerDesignDay
8,13.665068584585312
10,913312.8135142875
321,591027.7546493714
2,1, 7,21, 0, 6,20.00,30.00,SummerDesignDay
8,13.680451907720404
10,914972.8392402579
321,12000.0
2,1, 7,21, 0, 6,30.00,40.00,SummerDesignDay
8,13.695826455893389
10,917350.7439020276
321,222968.87550506128
2,1, 7,21, 0, 6,40.00,50.00,SummerDesignDay
8,13.711195251010303
10,919480.9704581702
321,375510.622372731
2,1, 7,21, 0, 6,50.00,60.00,SummerDesignDay
8,13.726552713863889
10,920964.4842106737
321,12000.0
2,1, 7,21, 0, 6, 0.00,60.00,SummerDesignDay
555,24.060248523036106
595,23.635390350703707
635,23.603032114018477
675,24.65949085971273
715,23.8230174960167
755,24.175332852594239
2,1, 7,21, 0, 7, 0.00,10.00,SummerDesignDay
8,13.78024039805344
10,1239940.6626173503
321,625097.6724695831
2,1, 7,21, 0, 7,10.00,20.00,SummerDesignDay
8,13.833820754314865
10,1057700.4265616446
321,12000.0
2,1, 7,21, 0, 7,20.00,30.00,SummerDesignDay
8,13.887299512014089
10,1249161.7858004724
321,589502.0348502803
2,1, 7,21, 0, 7,30.00,40.00,SummerDesignDay
8,13.940674335544428
10,1233472.4752612613
321,12000.0
2,1, 7,21, 0, 7,40.00,50.00,SummerDesignDay
8,13.993942850183995
10,1263805.9932366682
321,480527.8019127374
2,1, 7,21, 0, 7,50.00,60.00,SummerDesignDay
8,14.047107922751703
10,1270663.7564026253
321,121971.41537247809
2,1, 7,21, 0, 7, 0.00,60.00,SummerDesignDay
555,24.36364960490246
595,23.75567295112185
635,23.778156068839576
675,24.011883394088643
715,24.001254760614093
755,23.999483037147419
2,1, 7,21, 0, 8, 0.00,10.00,SummerDesignDay
8,14.175801016944173
10,2283652.423174087
321,444933.5042267124
2,1, 7,21, 0, 8,10.00,20.00,SummerDesignDay
8,14.30389081517423
10,2416792.2699803749
321,188704.14855646518
2,1, 7,21, 0, 8,20.00,30.00,SummerDesignDay
8,14.431376572089834
10,2446391.0943966626
321,624373.7801885442
2,1, 7,21, 0, 8,30.00,40.00,SummerDesignDay
8,14.558273322375906
10,2492480.603210291
321,12000.0
2,1, 7,21, 0, 8,40.00,50.00,SummerDesignDay
8,14.684579977889073
10,2535587.4232183678
321,622387.1759111763
2,1, 7,21, 0, 8,50.00,60.00,SummerDesignDay
8,14.810295691904573
10,2571288.5595115486
321,12000.0
2,1, 7,21, 0, 8, 0.00,60.00,SummerDesignDay
555,24.877246382973767
595,23.989791618900595
635,23.9951052983423
675,23.999229523671976
715,24.00041406281437
755,23.99999323438
2,1, 7,21, 0, 9, 0.00,10.00,SummerDesignDay
8,14.950121243610284
10,6635183.595995816
321,1107759.469530083
2,1, 7,21, 0, 9,10.00,20.00,SummerDesignDay
8,15.089221146567488
10,6761944.441668903
321,1211762.4954560339
2,1, 7,21, 0, 9,20.00,30.00,SummerDesignDay
8,15.227606891008949
10,6826107.989645455
321,1212416.467545278
2,1, 7,21, 0, 9,30.00,40.00,SummerDesignDay
8,15.365289776245018
10,6886182.105455922
321,1213314.2963258124
2,1, 7,21, 0, 9,40.00,50.00,SummerDesignDay
8,15.502264377040474
10,6940807.610846581
321,1214239.9013953997
2,1, 7,21, 0, 9,50.00,60.00,SummerDesignDay
8,15.638542321600605
10,6991449.935003929
321,1073617.1051379156
2,1, 7,21, 0, 9, 0.00,60.00,SummerDesignDay
555,25.55766150038183
595,23.999025936458499
635,23.9994209248415
675,23.99872822578199
715,23.99927019663595
755,23.99967177995966
2,1, 7,21, 0,10, 0.00,10.00,SummerDesignDay
8,15.759892319294759
10,7781871.386908999
321,1045525.7083863525
2,1, 7,21, 0,10,10.00,20.00,SummerDesignDay
8,15.880693229880889
10,7836746.851607835
321,1045058.5093681746
2,1, 7,21, 0,10,20.00,30.00,SummerDesignDay
8,16.000943860531654
10,7884015.395604355
321,1044576.3821338684
2,1, 7,21, 0,10,30.00,40.00,SummerDesignDay
8,16.120658125095784
10,7929285.20467039
321,1044087.061551405
2,1, 7,21, 0,10,40.00,50.00,SummerDesignDay
8,16.23983443184199
10,7969195.124433157
321,1043590.5789210404
2,1, 7,21, 0,10,50.00,60.00,SummerDesignDay
8,16.358472940285755
10,8004410.594009024
321,1043086.8329327375
2,1, 7,21, 0,10, 0.00,60.00,SummerDesignDay
555,26.328078912224489
595,23.998403072268997
635,23.998892706957645
675,23.99849288416006
715,23.998778250358418
755,23.999401428012534
2,1, 7,21, 0,11, 0.00,10.00,SummerDesignDay
8,16.462716623198927
10,8033710.113270667
321,1895856.160875465
2,1, 7,21, 0,11,10.00,20.00,SummerDesignDay
8,16.566550955696245
10,8087593.1240504099
321,1895856.160875465
2,1, 7,21, 0,11,20.00,30.00,SummerDesignDay
8,16.66997846079155
10,8117973.057705784
321,1895856.160875465
2,1, 7,21, 0,11,30.00,40.00,SummerDesignDay
8,16.7730012676781
10,8149258.976908937
321,1895856.160875465
2,1, 7,21, 0,11,40.00,50.00,SummerDesignDay
8,16.875622130186476
10,8180683.132456113
321,1895856.160875465
2,1, 7,21, 0,11,50.00,60.00,SummerDesignDay
8,16.97784413118777
10,8212625.022648295
321,1895856.160875465
2,1, 7,21, 0,11, 0.00,60.00,SummerDesignDay
555,27.035318670538726
595,23.99816457861583
635,23.998334089676918
675,23.998750862645694
715,23.99858054322583
755,23.999244953832194
2,1, 7,21, 0,12, 0.00,10.00,SummerDesignDay
8,17.045774844894369
10,8238187.349540881
321,1895856.160875465
2,1, 7,21, 0,12,10.00,20.00,SummerDesignDay
8,17.11352484602356
10,8265322.329386632
321,1895856.160875465
2,1, 7,21, 0,12,20.00,30.00,SummerDesignDay
8,17.181099778884684
10,8294638.070016485
321,1895856.160875465
2,1, 7,21, 0,12,30.00,40.00,SummerDesignDay
8,17.248505827268955
10,8326557.854580103
321,1895856.160875465
2,1, 7,21, 0,12,40.00,50.00,SummerDesignDay
8,17.315733840182703
10,8361642.345065631
321,1895856.160875465
2,1, 7,21, 0,12,50.00,60.00,SummerDesignDay
8,17.382788731949537
10,8398564.111099026
321,1895856.160875465
2,1, 7,21, 0,12, 0.00,60.00,SummerDesignDay
555,27.606272021531315
595,23.997899068993506
635,23.997758850502664
675,23.998964672871229
715,23.99840054940023
755,23.999119165153759
2,1, 7,21, 0,13, 0.00,10.00,SummerDesignDay
8,17.4363122345863
10,8325305.185631184
321,1895856.160875465
2,1, 7,21, 0,13,10.00,20.00,SummerDesignDay
8,17.489726041629873
10,8349955.153183568
321,1895856.160875465
2,1, 7,21, 0,13,20.00,30.00,SummerDesignDay
8,17.543025588328598
10,8373342.112952843
321,1895856.160875465
2,1, 7,21, 0,13,30.00,40.00,SummerDesignDay
8,17.59622068620083
10,8395561.268628879
321,1895856.160875465
2,1, 7,21, 0,13,40.00,50.00,SummerDesignDay
8,17.649308254383418
10,8417187.950255894
321,1895856.160875465
2,1, 7,21, 0,13,50.00,60.00,SummerDesignDay
8,17.70228170270765
10,8437906.309145907
321,1895856.160875465
2,1, 7,21, 0,13, 0.00,60.00,SummerDesignDay
555,28.01880926829008
595,23.998090986010465
635,23.99786278437942
675,23.999094868737129
715,23.99856109258918
755,23.99921203869736
2,1, 7,21, 0,14, 0.00,10.00,SummerDesignDay
8,17.735339409697159
10,8452430.919517864
321,1895856.160875465
2,1, 7,21, 0,14,10.00,20.00,SummerDesignDay
8,17.76835485245733
10,8465465.61330765
321,1895856.160875465
2,1, 7,21, 0,14,20.00,30.00,SummerDesignDay
8,17.80132395083002
10,8476808.262209883
321,1895856.160875465
2,1, 7,21, 0,14,30.00,40.00,SummerDesignDay
8,17.83425598398755
10,8487090.513652388
321,1895856.160875465
2,1, 7,21, 0,14,40.00,50.00,SummerDesignDay
8,17.867145969102244
10,8500017.046553877
321,1895856.160875465
2,1, 7,21, 0,14,50.00,60.00,SummerDesignDay
8,17.89998955880744
10,8517407.939425158
321,1895856.160875465
2,1, 7,21, 0,14, 0.00,60.00,SummerDesignDay
555,28.287531345015709
595,23.99817725877152
635,23.99813420395264
675,23.99910092152621
715,23.998621441193476
755,23.999237950901443
2,1, 7,21, 0,15, 0.00,10.00,SummerDesignDay
8,17.89998955880744
10,8635370.296610542
321,1895856.160875465
2,1, 7,21, 0,15,10.00,20.00,SummerDesignDay
8,17.89998955880744
10,8660089.234328449
321,1895856.160875465
2,1, 7,21, 0,15,20.00,30.00,SummerDesignDay
8,17.89998955880744
10,8688150.519206591
321,1895856.160875465
2,1, 7,21, 0,15,30.00,40.00,SummerDesignDay
8,17.89998955880744
10,8718472.35777816
321,1895856.160875465
2,1, 7,21, 0,15,40.00,50.00,SummerDesignDay
8,17.89998955880744
10,8749441.24018833
321,1895856.160875465
2,1, 7,21, 0,15,50.00,60.00,SummerDesignDay
8,17.89998955880744
10,8780271.095129129
321,1895856.160875465
2,1, 7,21, 0,15, 0.00,60.00,SummerDesignDay
555,28.39910803994141
595,23.997795874421283
635,23.998112408078254
675,23.998897478171114
715,23.998332448641308
755,23.998763880637623
2,1, 7,21, 0,16, 0.00,10.00,SummerDesignDay
8,17.860568207889693
10,8799768.517067429
321,1895856.160875465
2,1, 7,21, 0,16,10.00,20.00,SummerDesignDay
8,17.821087195457694
10,8817081.298735295
321,1895856.160875465
2,1, 7,21, 0,16,20.00,30.00,SummerDesignDay
8,17.781546005513165
10,8831956.55830066
321,1895856.160875465
2,1, 7,21, 0,16,30.00,40.00,SummerDesignDay
8,17.741944344507937
10,8843256.786470546
321,1895856.160875465
2,1, 7,21, 0,16,40.00,50.00,SummerDesignDay
8,17.70228170270765
10,8847521.542203892
321,1895856.160875465
2,1, 7,21, 0,16,50.00,60.00,SummerDesignDay
8,17.66255919312062
10,8848396.614464969
321,1895856.160875465
2,1, 7,21, 0,16, 0.00,60.00,SummerDesignDay
555,28.337191308471068
595,23.997474692882866
635,23.99819873435602
675,23.99878817997478
715,23.99809522178167
755,23.997892527482028
2,1, 7,21, 0,17, 0.00,10.00,SummerDesignDay
8,17.609504062474934
10,8842838.298105492
321,1277652.549063736
2,1, 7,21, 0,17,10.00,20.00,SummerDesignDay
8,17.55633553044059
10,8820167.576233995
321,1580229.703550461
2,1, 7,21, 0,17,20.00,30.00,SummerDesignDay
8,17.503058322036386
10,8808785.099497982
321,1577077.7919295105
2,1, 7,21, 0,17,30.00,40.00,SummerDesignDay
8,17.44967746622602
10,8793942.059216217
321,1261787.2219257644
2,1, 7,21, 0,17,40.00,50.00,SummerDesignDay
8,17.396181268445479
10,8780045.391112099
321,1849493.993860848
2,1, 7,21, 0,17,50.00,60.00,SummerDesignDay
8,17.34257573518993
10,8766470.549857537
321,1309169.1387386814
2,1, 7,21, 0,17, 0.00,60.00,SummerDesignDay
555,28.10351095454371
595,23.997399213531826
635,23.99837221367537
675,23.99883092852562
715,23.99805029668786
755,23.997637891982238
2,1, 7,21, 0,18, 0.00,10.00,SummerDesignDay
8,17.27541672792129
10,8281978.642617959
321,1073166.242087277
2,1, 7,21, 0,18,10.00,20.00,SummerDesignDay
8,17.20808504250612
10,8241893.900718026
321,1043938.3721368167
2,1, 7,21, 0,18,20.00,30.00,SummerDesignDay
8,17.14057454221269
10,8215689.546815815
321,1043394.4249507929
2,1, 7,21, 0,18,30.00,40.00,SummerDesignDay
8,17.072894901477484
10,8186559.551736749
321,1058933.8178388328
2,1, 7,21, 0,18,40.00,50.00,SummerDesignDay
8,17.00503937009805
10,8152478.031321897
321,1210986.1039399196
2,1, 7,21, 0,18,50.00,60.00,SummerDesignDay
8,16.937003238056929
10,8120002.794560083
321,1211710.571226365
2,1, 7,21, 0,18, 0.00,60.00,SummerDesignDay
555,27.722509606469669
595,23.997834062319119
635,23.9986670791411
675,23.99907298295514
715,23.998390124299318
755,23.998074548140793
2,1, 7,21, 0,19, 0.00,10.00,SummerDesignDay
8,16.834621823952899
10,5637160.988469711
321,848684.1709732919
2,1, 7,21, 0,19,10.00,20.00,SummerDesignDay
8,16.731840597095546
10,5549672.074919762
321,822049.3437850548
2,1, 7,21, 0,19,20.00,30.00,SummerDesignDay
8,16.628656510094389
10,5492980.212231005
321,822697.6997574028
2,1, 7,21, 0,19,30.00,40.00,SummerDesignDay
8,16.52506631093024
10,5440161.49824868
321,724462.3459669057
2,1, 7,21, 0,19,40.00,50.00,SummerDesignDay
8,16.421068679567168
10,5391120.510016928
321,604075.8820694031
2,1, 7,21, 0,19,50.00,60.00,SummerDesignDay
8,16.316660126006189
10,5344740.068254898
321,600946.287179295
2,1, 7,21, 0,19, 0.00,60.00,SummerDesignDay
555,27.183141177788476
595,23.99891635341183
635,23.999310696779167
675,23.999539025467699
715,23.999172449373249
755,23.998938837748484
2,1, 7,21, 0,20, 0.00,10.00,SummerDesignDay
8,16.23983443184199
10,3492206.9667672899
321,478322.31119735786
2,1, 7,21, 0,20,10.00,20.00,SummerDesignDay
8,16.16278109476159
10,3418109.027882451
321,706522.917163149
2,1, 7,21, 0,20,20.00,30.00,SummerDesignDay
8,16.08550223037326
10,3361526.684245953
321,709109.0931445177
2,1, 7,21, 0,20,30.00,40.00,SummerDesignDay
8,16.00800423259966
10,3305260.949047467
321,479431.6353264276
2,1, 7,21, 0,20,40.00,50.00,SummerDesignDay
8,15.93027362002692
10,3247628.7374240567
321,242455.2236434811
2,1, 7,21, 0,20,50.00,60.00,SummerDesignDay
8,15.852315674932763
10,3186848.4480345884
321,706004.587253011
2,1, 7,21, 0,20, 0.00,60.00,SummerDesignDay
555,26.554116670078625
595,23.99955950226851
635,23.99972478086035
675,23.999813597011359
715,23.999592878157377
755,23.999570481300613
2,1, 7,21, 0,21, 0.00,10.00,SummerDesignDay
8,15.788363192404085
10,3123224.6071245467
321,708148.7976152641
2,1, 7,21, 0,21,10.00,20.00,SummerDesignDay
8,15.724257172716296
10,3051771.7410906024
321,665083.1828630241
2,1, 7,21, 0,21,20.00,30.00,SummerDesignDay
8,15.659996790990642
10,2972185.8532177966
321,150518.57570809328
2,1, 7,21, 0,21,30.00,40.00,SummerDesignDay
8,15.595581535815035
10,2893851.568593352
321,613348.7007085525
2,1, 7,21, 0,21,40.00,50.00,SummerDesignDay
8,15.531010778608508
10,2814955.464215143
321,707218.9561992607
2,1, 7,21, 0,21,50.00,60.00,SummerDesignDay
8,15.466284010175432
10,2755676.1918648469
321,710020.8857572873
2,1, 7,21, 0,21, 0.00,60.00,SummerDesignDay
555,25.953383837836399
595,23.999741228409705
635,23.999852450402846
675,23.999889508688545
715,23.99978351654538
755,23.999863445041897
2,1, 7,21, 0,22, 0.00,10.00,SummerDesignDay
8,15.401400391031143
10,1079980.6514958402
321,286678.7699119997
2,1, 7,21, 0,22,10.00,20.00,SummerDesignDay
8,15.33635955620899
10,1043295.2208718631
321,557520.3907311515
2,1, 7,21, 0,22,20.00,30.00,SummerDesignDay
8,15.271160868662271
10,1113748.8678723379
321,707314.6334395876
2,1, 7,21, 0,22,30.00,40.00,SummerDesignDay
8,15.205803751049473
10,1031533.7737026726
321,709150.4191121515
2,1, 7,21, 0,22,40.00,50.00,SummerDesignDay
8,15.140287170056565
10,1084373.4183700588
321,482702.60246436009
2,1, 7,21, 0,22,50.00,60.00,SummerDesignDay
8,15.074611000243042
10,1031533.7737026726
321,239214.5647600691
2,1, 7,21, 0,22, 0.00,60.00,SummerDesignDay
555,25.506766410627976
595,24.714885021802446
635,24.849410412962738
675,24.902494172862267
715,24.762927436571535
755,25.31548792119047
2,1, 7,21, 0,23, 0.00,10.00,SummerDesignDay
8,15.023420228078102
10,1031533.7737026726
321,594485.7864463559
2,1, 7,21, 0,23,10.00,20.00,SummerDesignDay
8,14.972132426857695
10,1031533.7737026726
321,12000.0
2,1, 7,21, 0,23,20.00,30.00,SummerDesignDay
8,14.920741525635572
10,1031533.7737026726
321,588001.4453433364
2,1, 7,21, 0,23,30.00,40.00,SummerDesignDay
8,14.869258065653357
10,1031533.7737026726
321,12000.0
2,1, 7,21, 0,23,40.00,50.00,SummerDesignDay
8,14.817676172580706
10,1031533.7737026726
321,591019.4858401034
2,1, 7,21, 0,23,50.00,60.00,SummerDesignDay
8,14.765990692483252
10,1031533.7737026726
321,12000.0
2,1, 7,21, 0,23, 0.00,60.00,SummerDesignDay
555,25.197330325236086
595,24.96038503894975
635,25.11756732235273
675,25.242761436977437
715,24.954829087244979
755,25.81572744846235
2,1, 7,21, 0,24, 0.00,10.00,SummerDesignDay
8,14.714211508387555
10,902859.3794974712
321,224491.3020516227
2,1, 7,21, 0,24,10.00,20.00,SummerDesignDay
8,14.662333465801618
10,902859.3794974712
321,374011.01682221
2,1, 7,21, 0,24,20.00,30.00,SummerDesignDay
8,14.61035058411449
10,902859.3794974712
321,12000.0
2,1, 7,21, 0,24,30.00,40.00,SummerDesignDay
8,14.558273322375906
10,902859.3794974712
321,586157.8836655223
2,1, 7,21, 0,24,40.00,50.00,SummerDesignDay
8,14.506095721461503
10,902859.3794974712
321,12000.0
2,1, 7,21, 0,24,50.00,60.00,SummerDesignDay
8,14.453812760328488
10,902859.3794974712
321,589298.7053461152
2,1, 7,21, 0,24, 0.00,60.00,SummerDesignDay
555,24.967150645514864
595,24.712525016187415
635,24.8666204200962
675,25.03653714974095
715,24.691184367118855
755,25.613060261651943
3,1, 7,21, 0,SummerDesignDay
556,43.47702628207025,37.74520733801894,15,50,49.12464667595416, 5,50
596,48.88498040162762,44.09358644917495,22,20,51.35748632819701,16,40
636,46.73654868433611,42.541594612563169,22,20,50.596067660670957, 6,20
676,44.670529621392038,38.0975087039381, 9,20,49.56833656224411, 5,40
716,47.761176816093719,42.66711039630152,22,20,50.70459907618362, 5,40
756,44.515117973830317,37.47825621239647,22,20,48.78918656949144, 7, 5
4,1, 7
7,21.096875,15.3,21, 5,60,27.8,21,14,60
1,EDMONTON INTL AP ANN HTG 99.6% CONDNS DB,  53.31,-113.58,  -7.00, 723.30
2,1, 1,21, 0, 1, 0.00,10.00,WinterDesignDay
8,-32.6
10,902859.3794974712
321,12950801.175218832
2,1, 1,21, 0, 1,10.00,20.00,WinterDesignDay
8,-32.6
10,902859.3794974712
321,13290163.638273068
2,1, 1,21, 0, 1,20.00,30.00,WinterDesignDay
8,-32.6
10,902859.3794974712
321,13414627.010824163
2,1, 1,21, 0, 1,30.00,40.00,WinterDesignDay
8,-32.6
10,902859.3794974712
321,13168812.763239125
2,1, 1,21, 0, 1,40.00,50.00,WinterDesignDay
8,-32.6
10,902859.3794974712
321,13815417.086718299
2,1, 1,21, 0, 1,50.00,60.00,WinterDesignDay
8,-32.6
10,902859.3794974712
321,13304418.461237712
2,1, 1,21, 0, 1, 0.00,60.00,WinterDesignDay
555,11.519106891745397
595,18.0000297421024
635,18.0001384868319
675,18.00009990647619
715,18.000151506622744
755,18.00008998011582
2,1, 1,21, 0, 2, 0.00,10.00,WinterDesignDay
8,-32.6
10,902859.3794974712
321,13949840.597184746
2,1, 1,21, 0, 2,10.00,20.00,WinterDesignDay
8,-32.6
10,902859.3794974712
321,13434359.25864707
2,1, 1,21, 0, 2,20.00,30.00,WinterDesignDay
8,-32.6
10,902859.3794974712
321,14079180.11031055
2,1, 1,21, 0, 2,30.00,40.00,WinterDesignDay
8,-32.6
10,902859.3794974712
321,13559773.714942987
2,1, 1,21, 0, 2,40.00,50.00,WinterDesignDay
8,-32.6
10,902859.3794974712
321,14204350.130961398
2,1, 1,21, 0, 2,50.00,60.00,WinterDesignDay
8,-32.6
10,902859.3794974712
321,13681390.859594187
2,1, 1,21, 0, 2, 0.00,60.00,WinterDesignDay
555,11.304027962262005
595,18.00003328305616
635,18.000113160942683
675,18.00008429781793
715,18.000122471888738
755,18.000076724983339
2,1, 1,21, 0, 3, 0.00,10.00,WinterDesignDay
8,-32.6
10,902859.3794974712
321,14248268.605171495
2,1, 1,21, 0, 3,10.00,20.00,WinterDesignDay
8,-32.6
10,902859.3794974712
321,13876069.771693306
2,1, 1,21, 0, 3,20.00,30.00,WinterDesignDay
8,-32.6
10,902859.3794974712
321,14038881.376794139
2,1, 1,21, 0, 3,30.00,40.00,WinterDesignDay
8,-32.6
10,902859.3794974712
321,14312397.70985851
2,1, 1,21, 0, 3,40.00,50.00,WinterDesignDay
8,-32.6
10,902859.3794974712
321,13970988.239872247
2,1, 1,21, 0, 3,50.00,60.00,WinterDesignDay
8,-32.6
10,902859.3794974712
321,14605272.277510208
2,1, 1,21, 0, 3, 0.00,60.00,WinterDesignDay
555,11.104278527378517
595,18.000033417683054
635,18.00009399356921
675,18.000071767785383
715,18.000100967630894
755,18.00006588627856
2,1, 1,21, 0, 4, 0.00,10.00,WinterDesignDay
8,-32.6
10,902859.3794974712
321,14081924.319646933
2,1, 1,21, 0, 4,10.00,20.00,WinterDesignDay
8,-32.6
10,902859.3794974712
321,14716660.064458192
2,1, 1,21, 0, 4,20.00,30.00,WinterDesignDay
8,-32.6
10,902859.3794974712
321,14190148.735761174
2,1, 1,21, 0, 4,30.00,40.00,WinterDesignDay
8,-32.6
10,902859.3794974712
321,14825309.664028377
2,1, 1,21, 0, 4,40.00,50.00,WinterDesignDay
8,-32.6
10,902859.3794974712
321,14295713.2274823
2,1, 1,21, 0, 4,50.00,60.00,WinterDesignDay
8,-32.6
10,902859.3794974712
321,14931276.798782293
2,1, 1,21, 0, 4, 0.00,60.00,WinterDesignDay
555,10.920190574504625
595,18.000032511280986
635,18.00007981918674
675,18.000061967434307
715,18.000085466037125
755,18.000057251928724
2,1, 1,21, 0, 5, 0.00,10.00,WinterDesignDay
8,-32.6
10,902859.3794974712
321,14398623.689499826
2,1, 1,21, 0, 5,10.00,20.00,WinterDesignDay
8,-32.6
10,902859.3794974712
321,14874118.83005071
2,1, 1,21, 0, 5,20.00,30.00,WinterDesignDay
8,-32.6
10,902859.3794974712
321,14656592.339760766
2,1, 1,21, 0, 5,30.00,40.00,WinterDesignDay
8,-32.6
10,902859.3794974712
321,14646221.310951658
2,1, 1,21, 0, 5,40.00,50.00,WinterDesignDay
8,-32.6
10,902859.3794974712
321,15076421.167451762
2,1, 1,21, 0, 5,50.00,60.00,WinterDesignDay
8,-32.6
10,902859.3794974712
321,14644308.571114026
2,1, 1,21, 0, 5, 0.00,60.00,WinterDesignDay
555,10.75197174353525
595,18.000031533125595
635,18.000069498238778
675,18.000054411750157
715,18.000074502927466
755,18.00005046848918
2,1, 1,21, 0, 6, 0.00,10.00,WinterDesignDay
8,-32.6
10,902859.3794974712
321,15270578.35576998
2,1, 1,21, 0, 6,10.00,20.00,WinterDesignDay
8,-32.6
10,902859.3794974712
321,14738371.440101417
2,1, 1,21, 0, 6,20.00,30.00,WinterDesignDay
8,-32.6
10,902859.3794974712
321,15365217.010967577
2,1, 1,21, 0, 6,30.00,40.00,WinterDesignDay
8,-32.6
10,902859.3794974712
321,14829989.753241033
2,1, 1,21, 0, 6,40.00,50.00,WinterDesignDay
8,-32.6
10,902859.3794974712
321,15457374.690708466
2,1, 1,21, 0, 6,50.00,60.00,WinterDesignDay
8,-32.6
10,902859.3794974712
321,14919198.395345265
2,1, 1,21, 0, 6, 0.00,60.00,WinterDesignDay
555,10.597562561879644
595,18.000030866479525
635,18.000062091421925
675,18.000048654142956
715,18.000066894921166
755,18.000045196661394
2,1, 1,21, 0, 7, 0.00,10.00,WinterDesignDay
8,-32.6
10,913054.0917604654
321,23584293.98196009
2,1, 1,21, 0, 7,10.00,20.00,WinterDesignDay
8,-32.6
10,902859.3794974712
321,16515511.640550994
2,1, 1,21, 0, 7,20.00,30.00,WinterDesignDay
8,-32.6
10,902859.3794974712
321,21992211.18490306
2,1, 1,21, 0, 7,30.00,40.00,WinterDesignDay
8,-32.6
10,902859.3794974712
321,20565761.704665599
2,1, 1,21, 0, 7,40.00,50.00,WinterDesignDay
8,-32.6
10,902859.3794974712
321,20045986.05950889
2,1, 1,21, 0, 7,50.00,60.00,WinterDesignDay
8,-32.6
10,902859.3794974712
321,20474190.75283077
2,1, 1,21, 0, 7, 0.00,60.00,WinterDesignDay
555,10.464354415022717
595,19.972033036674245
635,19.988560006186657
675,19.999453368045388
715,19.983224884308667
755,19.998435085404596
2,1, 1,21, 0, 8, 0.00,10.00,WinterDesignDay
8,-32.6
10,1796725.1995938174
321,30328530.030316879
2,1, 1,21, 0, 8,10.00,20.00,WinterDesignDay
8,-32.6
10,1776335.7750678289
321,21755731.244788749
2,1, 1,21, 0, 8,20.00,30.00,WinterDesignDay
8,-32.6
10,1776335.7750678289
321,26593856.685428457
2,1, 1,21, 0, 8,30.00,40.00,WinterDesignDay
8,-32.6
10,1776335.7750678289
321,24547416.111026754
2,1, 1,21, 0, 8,40.00,50.00,WinterDesignDay
8,-32.6
10,1776335.7750678289
321,24730303.803547298
2,1, 1,21, 0, 8,50.00,60.00,WinterDesignDay
8,-32.6
10,1776335.7750678289
321,24170541.105674995
2,1, 1,21, 0, 8, 0.00,60.00,WinterDesignDay
555,10.414630593470302
595,21.967542232977125
635,21.982866729772913
675,21.994492722448514
715,21.97763379045654
755,21.99582215321465
2,1, 1,21, 0, 9, 0.00,10.00,WinterDesignDay
8,-32.6
10,5100148.166726074
321,22101201.999141955
2,1, 1,21, 0, 9,10.00,20.00,WinterDesignDay
8,-32.6
10,5100148.166726074
321,21606410.28403186
2,1, 1,21, 0, 9,20.00,30.00,WinterDesignDay
8,-32.6
10,5100148.166726074
321,21464696.542714929
2,1, 1,21, 0, 9,30.00,40.00,WinterDesignDay
8,-32.6
10,5100148.166726074
321,21412600.277073146
2,1, 1,21, 0, 9,40.00,50.00,WinterDesignDay
8,-32.6
10,5100148.166726074
321,21125669.33140418
2,1, 1,21, 0, 9,50.00,60.00,WinterDesignDay
8,-32.6
10,5100148.166726074
321,20698749.814460309
2,1, 1,21, 0, 9, 0.00,60.00,WinterDesignDay
555,10.507580140743068
595,22.000342486257009
635,22.00047194786389
675,22.000373806651188
715,22.000513265548809
755,22.000344109534468
2,1, 1,21, 0,10, 0.00,10.00,WinterDesignDay
8,-32.6
10,5698419.670541389
321,19974820.380626076
2,1, 1,21, 0,10,10.00,20.00,WinterDesignDay
8,-32.6
10,5698419.670541389
321,19792686.618124807
2,1, 1,21, 0,10,20.00,30.00,WinterDesignDay
8,-32.6
10,5698419.670541389
321,19645326.32381871
2,1, 1,21, 0,10,30.00,40.00,WinterDesignDay
8,-32.6
10,5698419.670541389
321,19850359.314226007
2,1, 1,21, 0,10,40.00,50.00,WinterDesignDay
8,-32.6
10,5698419.670541389
321,19743783.19114875
2,1, 1,21, 0,10,50.00,60.00,WinterDesignDay
8,-32.6
10,5698419.670541389
321,19362404.281958105
2,1, 1,21, 0,10, 0.00,60.00,WinterDesignDay
555,10.695702585306238
595,22.0005257373906