Program Version,EnergyPlus, Version 8.9.0-eba93e8e1b, YMD=2018.11.01 15:53
1,5,Environment Title[],Latitude[deg],Longitude[deg],Time Zone[],Elevation[m]
2,8,Day of Simulation[],Month[],Day of Month[],DST Indicator[1=yes 0=no],Hour[],StartMinute[],EndMinute[],DayType
3,5,Cumulative Day of Simulation[],Month[],Day of Month[],DST Indicator[1=yes 0=no],DayType  ! When Daily Report Variables Requested
4,2,Cumulative Days of Simulation[],Month[]  ! When Monthly Report Variables Requested
5,1,Cumulative Days of Simulation[] ! When Run Period Report Variables Requested
6,1,Calendar Year of Simulation[] ! When Annual Report Variables Requested
7,9,Environment,Site Outdoor Air Drybulb Temperature [C] !Monthly [Value,Min,Day,Hour,Minute,Max,Day,Hour,Minute]
8,1,Environment,Site Outdoor Air Wetbulb Temperature [C] !TimeStep
555,1,SP-ATTIC SYS-0 FLR-2 SCH-- UNDEFINED - HPLCMT-CORE ZN,Zone Air Temperature [C] !Hourly
556,7,SP-ATTIC SYS-0 FLR-2 SCH-- UNDEFINED - HPLCMT-CORE ZN,Zone Air Relative Humidity [%] !Daily [Value,Min,Hour,Minute,Max,Hour,Minute]
595,1,SP-CORE_ZN SYS-3 FLR-1 SCH-A HPLCMT-CORE ZN,Zone Air Temperature [C] !Hourly
596,7,SP-CORE_ZN SYS-3 FLR-1 SCH-A HPLCMT-CORE ZN,Zone Air Relative Humidity [%] !Daily [Value,Min,Hour,Minute,Max,Hour,Minute]
635,1,SP-PERIMETER_ZN_1 SYS-3 FLR-1 SCH-A HPLCMT-SOUTH ZN,Zone Air Temperature [C] !Hourly
636,7,SP-PERIMETER_ZN_1 SYS-3 FLR-1 SCH-A HPLCMT-SOUTH ZN,Zone Air Relative Humidity [%] !Daily [Value,Min,Hour,Minute,Max,Hour,Minute]
675,1,SP-PERIMETER_ZN_2 SYS-3 FLR-1 SCH-A HPLCMT-EAST ZN,Zone Air Temperature [C] !Hourly
676,7,SP-PERIMETER_ZN_2 SYS-3 FLR-1 SCH-A HPLCMT-EAST ZN,Zone Air Relative Humidity [%] !Daily [Value,Min,Hour,Minute,Max,Hour,Minute]
715,1,SP-PERIMETER_ZN_3 SYS-3 FLR-1 SCH-A HPLCMT-NORTH ZN,Zone Air Temperature [C] !Hourly
716,7,SP-PERIMETER_ZN_3 SYS-3 FLR-1 SCH-A HPLCMT-NORTH ZN,Zone Air Relative Humidity [%] !Daily [Value,Min,Hour,Minute,Max,Hour,Minute]
755,1,SP-PERIMETER_ZN_4 SYS-3 FLR-1 SCH-A HPLCMT-WEST ZN,Zone Air Temperature [C] !Hourly
756,7,SP-PERIMETER_ZN_4 SYS-3 FLR-1 SCH-A HPLCMT-WEST ZN,Zone Air Relative Humidity [%] !Daily [Value,Min,Hour,Minute,Max,Hour,Minute]
10,1,Electricity:Facility [J] !TimeStep
321,1,Gas:Facility [J] !TimeStep
End of Data Dictionary
1,OTTAWA=MACDONALD-CARTIER INTL ANN CLG .4% CONDNS DB=>MWB,  45.32, -75.67,  -5.00, 114.90
2,1, 7,21, 0, 1, 0.00,10.00,SummerDesignDay
8,19.2840458690032
10,871939.1225230446
321,12000.0
2,1, 7,21, 0, 1,10.00,20.00,SummerDesignDay
8,19.25220058801155
10,871939.1225230446
321,12000.0
2,1, 7,21, 0, 1,20.00,30.00,SummerDesignDay
8,19.2203165671003
10,871939.1225230446
321,581048.0875447957
2,1, 7,21, 0, 1,30.00,40.00,SummerDesignDay
8,19.188388626363016
10,871939.1225230446
321,12000.0
2,1, 7,21, 0, 1,40.00,50.00,SummerDesignDay
8,19.15642770709394
10,871939.1225230446
321,585346.6825596421
2,1, 7,21, 0, 1,50.00,60.00,SummerDesignDay
8,19.124427397166604
10,871939.1225230446
321,12000.0
2,1, 7,21, 0, 1, 0.00,60.00,SummerDesignDay
555,25.51731098264719
595,25.52434529635632
635,25.57498927228963
675,25.897020848790864
715,25.545871086916294
755,26.290267588829967
2,1, 7,21, 0, 2, 0.00,10.00,SummerDesignDay
8,19.103070457286994
10,871939.1225230446
321,387085.4990570832
2,1, 7,21, 0, 2,10.00,20.00,SummerDesignDay
8,19.08170119193842
10,871939.1225230446
321,210222.95676884894
2,1, 7,21, 0, 2,20.00,30.00,SummerDesignDay
8,19.06030939273045
10,871939.1225230446
321,12000.0
2,1, 7,21, 0, 2,30.00,40.00,SummerDesignDay
8,19.03890076386851
10,871939.1225230446
321,582383.4932251208
2,1, 7,21, 0, 2,40.00,50.00,SummerDesignDay
8,19.01747444558601
10,871939.1225230446
321,12000.0
2,1, 7,21, 0, 2,50.00,60.00,SummerDesignDay
8,18.996036037989819
10,871939.1225230446
321,586562.1467108058
2,1, 7,21, 0, 2, 0.00,60.00,SummerDesignDay
555,25.350384484434387
595,25.35310308060168
635,25.38041887275094
675,25.70166766074328
715,25.357993600874499
755,26.083493237951975
2,1, 7,21, 0, 3, 0.00,10.00,SummerDesignDay
8,18.97994058577143
10,871939.1225230446
321,12000.0
2,1, 7,21, 0, 3,10.00,20.00,SummerDesignDay
8,18.96383509390068
10,871939.1225230446
321,180856.72937859994
2,1, 7,21, 0, 3,20.00,30.00,SummerDesignDay
8,18.947724870466826
10,871939.1225230446
321,413158.57245858499
2,1, 7,21, 0, 3,30.00,40.00,SummerDesignDay
8,18.931599991201066
10,871939.1225230446
321,12000.0
2,1, 7,21, 0, 3,40.00,50.00,SummerDesignDay
8,18.915470425479847
10,871939.1225230446
321,583621.6421731773
2,1, 7,21, 0, 3,50.00,60.00,SummerDesignDay
8,18.8993255989201
10,871939.1225230446
321,12000.0
2,1, 7,21, 0, 3, 0.00,60.00,SummerDesignDay
555,25.199975483752739
595,25.201981884156497
635,25.20659080904564
675,25.52154835737691
715,25.189938625334418
755,25.885778110894294
2,1, 7,21, 0, 4, 0.00,10.00,SummerDesignDay
8,18.883176400800605
10,871939.1225230446
321,587693.5835128363
2,1, 7,21, 0, 4,10.00,20.00,SummerDesignDay
8,18.867011710849643
10,871939.1225230446
321,12000.0
2,1, 7,21, 0, 4,20.00,30.00,SummerDesignDay
8,18.850837592647797
10,871939.1225230446
321,12000.0
2,1, 7,21, 0, 4,30.00,40.00,SummerDesignDay
8,18.834658360362007
10,871939.1225230446
321,580494.4147947859
2,1, 7,21, 0, 4,40.00,50.00,SummerDesignDay
8,18.8184648850153
10,871939.1225230446
321,12000.0
2,1, 7,21, 0, 4,50.00,60.00,SummerDesignDay
8,18.8022655410338
10,871939.1225230446
321,584844.8632908412
2,1, 7,21, 0, 4, 0.00,60.00,SummerDesignDay
555,25.055914438284245
595,25.060555518733869
635,25.043664206153954
675,25.3540793756507
715,25.032081754868416
755,25.69725168295074
2,1, 7,21, 0, 5, 0.00,10.00,SummerDesignDay
8,18.79145567867417
10,871939.1225230446
321,12000.0
2,1, 7,21, 0, 5,10.00,20.00,SummerDesignDay
8,18.780646332866213
10,871939.1225230446
321,466548.7591612078
2,1, 7,21, 0, 5,20.00,30.00,SummerDesignDay
8,18.76983296444122
10,871939.1225230446
321,132000.7621005349
2,1, 7,21, 0, 5,30.00,40.00,SummerDesignDay
8,18.75901007085189
10,871939.1225230446
321,12000.0
2,1, 7,21, 0, 5,40.00,50.00,SummerDesignDay
8,18.7481869937485
10,871939.1225230446
321,581864.4486232161
2,1, 7,21, 0, 5,50.00,60.00,SummerDesignDay
8,18.737365749092537
10,871939.1225230446
321,12000.0
2,1, 7,21, 0, 5, 0.00,60.00,SummerDesignDay
555,24.93197191602461
595,24.925429941419794
635,24.892602576282717
675,25.22958965950592
715,24.896435126437046
755,25.519104324382544
2,1, 7,21, 0, 6, 0.00,10.00,SummerDesignDay
8,18.7481869937485
10,871939.1225230446
321,586089.2365539507
2,1, 7,21, 0, 6,10.00,20.00,SummerDesignDay
8,18.75901007085189
10,882897.3189919554
321,12000.0
2,1, 7,21, 0, 6,20.00,30.00,SummerDesignDay
8,18.76983296444122
10,886520.9242028187
321,263781.31976544
2,1, 7,21, 0, 6,30.00,40.00,SummerDesignDay
8,18.780646332866213
10,889718.4375909304
321,331502.83410598555
2,1, 7,21, 0, 6,40.00,50.00,SummerDesignDay
8,18.79145567867417
10,892385.8445107474
321,12000.0
2,1, 7,21, 0, 6,50.00,60.00,SummerDesignDay
8,18.8022655410338
10,877729.5576710708
321,587324.230798606
2,1, 7,21, 0, 6, 0.00,60.00,SummerDesignDay
555,25.08524359183279
595,24.87735217483195
635,24.874735124867937
675,25.934033990030487
715,25.00953477222684
755,25.44818869846208
2,1, 7,21, 0, 7, 0.00,10.00,SummerDesignDay
8,18.840052605786814
10,2753424.6799850028
321,74377.37799927034
2,1, 7,21, 0, 7,10.00,20.00,SummerDesignDay
8,18.87778619489805
10,2211992.9653682939
321,587277.5738282327
2,1, 7,21, 0, 7,20.00,30.00,SummerDesignDay
8,18.915470425479847
10,2283032.283194255
321,12000.0
2,1, 7,21, 0, 7,30.00,40.00,SummerDesignDay
8,18.953096118062495
10,2155046.1434014376
321,20053.901274595704
2,1, 7,21, 0, 7,40.00,50.00,SummerDesignDay
8,18.99066883495391
10,2100490.768960021
321,572172.6976496452
2,1, 7,21, 0, 7,50.00,60.00,SummerDesignDay
8,19.02819215483863
10,2091538.862961121
321,12000.0
2,1, 7,21, 0, 7, 0.00,60.00,SummerDesignDay
555,25.511808355429655
595,24.016934982463046
635,24.011331020917653
675,24.100788245907429
715,24.025458072574208
755,24.015455338043866
2,1, 7,21, 0, 8, 0.00,10.00,SummerDesignDay
8,19.119090922986229
10,3187926.760409621
321,610672.358097334
2,1, 7,21, 0, 8,10.00,20.00,SummerDesignDay
8,19.209676482065853
10,3224874.0466212567
321,12000.0
2,1, 7,21, 0, 8,20.00,30.00,SummerDesignDay
8,19.299951906634847
10,3246564.017674235
321,612206.8117492339
2,1, 7,21, 0, 8,30.00,40.00,SummerDesignDay
8,19.389928824990219
10,3269592.086457354
321,62532.36558831957
2,1, 7,21, 0, 8,40.00,50.00,SummerDesignDay
8,19.4795823892733
10,3293815.9915785219
321,560767.4598378639
2,1, 7,21, 0, 8,50.00,60.00,SummerDesignDay
8,19.568935475929295
10,3319041.5614473198
321,351005.7583881197
2,1, 7,21, 0, 8, 0.00,60.00,SummerDesignDay
555,26.201533676755579
595,23.99972078878272
635,23.999698445185208
675,23.998731573576966
715,23.999694608750536
755,23.999875273153817
2,1, 7,21, 0, 9, 0.00,10.00,SummerDesignDay
8,19.66844507688812
10,7481405.612623601
321,882149.5095296172
2,1, 7,21, 0, 9,10.00,20.00,SummerDesignDay
8,19.767573179707669
10,7604842.153026247
321,947851.892796587
2,1, 7,21, 0, 9,20.00,30.00,SummerDesignDay
8,19.866330746445795
10,7655348.779859467
321,947411.984875561
2,1, 7,21, 0, 9,30.00,40.00,SummerDesignDay
8,19.964711871061558
10,7702025.61917198
321,947057.5787012467
2,1, 7,21, 0, 9,40.00,50.00,SummerDesignDay
8,20.062727728864816
10,7741869.10816574
321,946698.6764872065
2,1, 7,21, 0, 9,50.00,60.00,SummerDesignDay
8,20.160375627757714
10,7776980.844568866
321,1054592.8597596395
2,1, 7,21, 0, 9, 0.00,60.00,SummerDesignDay
555,27.008932473895994
595,23.998553186475179
635,23.998769753178427
675,23.998532255131008
715,23.99876225154523
755,23.99945066815994
2,1, 7,21, 0,10, 0.00,10.00,SummerDesignDay
8,20.247432286023
10,8563071.648854636
321,1061509.9665856199
2,1, 7,21, 0,10,10.00,20.00,SummerDesignDay
8,20.334198251055687
10,8594813.720295987
321,1061750.1089079639
2,1, 7,21, 0,10,20.00,30.00,SummerDesignDay
8,20.420674889330156
10,8616282.316344994
321,1061995.792354257
2,1, 7,21, 0,10,30.00,40.00,SummerDesignDay
8,20.50686410461129
10,8634701.887013207
321,1062243.2979470373
2,1, 7,21, 0,10,40.00,50.00,SummerDesignDay
8,20.59277197915242
10,8650171.057454046
321,1062492.6175008987
2,1, 7,21, 0,10,50.00,60.00,SummerDesignDay
8,20.67839100058158
10,8663327.183676219
321,1062743.7527967527
2,1, 7,21, 0,10, 0.00,60.00,SummerDesignDay
555,27.803919565693449
595,23.998114695504314
635,23.99828793076443
675,23.998551450402109
715,23.998354306420937
755,23.999184172054869
2,1, 7,21, 0,11, 0.00,10.00,SummerDesignDay
8,20.75370382828009
10,8674412.986629332
321,1403255.2715360432
2,1, 7,21, 0,11,10.00,20.00,SummerDesignDay
8,20.82879725584293
10,8716929.024386147
321,1895856.160875465
2,1, 7,21, 0,11,20.00,30.00,SummerDesignDay
8,20.90366855164364
10,8739008.342074516
321,1329404.5808365066
2,1, 7,21, 0,11,30.00,40.00,SummerDesignDay
8,20.978327197140595
10,8764185.880943526
321,1895856.160875465
2,1, 7,21, 0,11,40.00,50.00,SummerDesignDay
8,21.052770435649987
10,8793516.564330092
321,1466184.5992814953
2,1, 7,21, 0,11,50.00,60.00,SummerDesignDay
8,21.126998315025806
10,8826847.6801047
321,1758533.3878731947
2,1, 7,21, 0,11, 0.00,60.00,SummerDesignDay
555,28.473834186260864
595,23.998071168293774
635,23.997959001296409
675,23.998913394198625
715,23.998255792392667
755,23.999072680650703
2,1, 7,21, 0,12, 0.00,10.00,SummerDesignDay
8,21.176364764512436
10,8853027.03868274
321,1895856.160875465
2,1, 7,21, 0,12,10.00,20.00,SummerDesignDay
8,21.225636252128049
10,8886063.286129812
321,1329393.5439657022
2,1, 7,21, 0,12,20.00,30.00,SummerDesignDay
8,21.27481408813442
10,8918470.813310707
321,1895856.160875465
2,1, 7,21, 0,12,30.00,40.00,SummerDesignDay
8,21.32389714161367
10,8950966.812733047
321,1482145.5675939427
2,1, 7,21, 0,12,40.00,50.00,SummerDesignDay
8,21.372882039030619
10,8984117.93584103
321,1742593.9321911827
2,1, 7,21, 0,12,50.00,60.00,SummerDesignDay
8,21.421778222706306
10,9013258.082207503
321,1895856.160875465
2,1, 7,21, 0,12, 0.00,60.00,SummerDesignDay
555,28.978278879303294
595,23.99787407787832
635,23.99757693681276
675,23.99884906304014
715,23.998059663203749
755,23.998966740882126
2,1, 7,21, 0,13, 0.00,10.00,SummerDesignDay
8,21.460829759656176
10,8925020.294912734
321,1329381.2123506219
2,1, 7,21, 0,13,10.00,20.00,SummerDesignDay
8,21.499817003159384
10,8941371.841743328
321,1895856.160875465
2,1, 7,21, 0,13,20.00,30.00,SummerDesignDay
8,21.53875017563149
10,8957289.166300886
321,1497996.218693401
2,1, 7,21, 0,13,30.00,40.00,SummerDesignDay
8,21.57761871831439
10,8973994.439819389
321,1726766.320513422
2,1, 7,21, 0,13,40.00,50.00,SummerDesignDay
8,21.616433450967234
10,8987849.281529995
321,1895856.160875465
2,1, 7,21, 0,13,50.00,60.00,SummerDesignDay
8,21.655184624488759
10,9005077.354799577
321,1329368.9577362538
2,1, 7,21, 0,13, 0.00,60.00,SummerDesignDay
555,29.305569913371689
595,23.998128898238389
635,23.997842364738927
675,23.998897687902354
715,23.998262172191457
755,23.999088162049106
2,1, 7,21, 0,14, 0.00,10.00,SummerDesignDay
8,21.67937576104208
10,9015375.039929174
321,1895856.160875465
2,1, 7,21, 0,14,10.00,20.00,SummerDesignDay
8,21.703544513972305
10,9030263.00069191
321,1513730.6436867119
2,1, 7,21, 0,14,20.00,30.00,SummerDesignDay
8,21.727690125397957
10,9052969.442171883
321,1711056.3349066624
2,1, 7,21, 0,14,30.00,40.00,SummerDesignDay
8,21.751812391480358
10,9077700.745013088
321,1895856.160875465
2,1, 7,21, 0,14,40.00,50.00,SummerDesignDay
8,21.7759121945202
10,9110948.263330711
321,1329356.7846182704
2,1, 7,21, 0,14,50.00,60.00,SummerDesignDay
8,21.799989308895414
10,9146951.867061153
321,1895856.160875465
2,1, 7,21, 0,14, 0.00,60.00,SummerDesignDay
555,29.470726441610663
595,23.998238331829439
635,23.99813407752053
675,23.99893171967894
715,23.99835224291415
755,23.999051781411965
2,1, 7,21, 0,15, 0.00,10.00,SummerDesignDay
8,21.799989308895414
10,9293330.813005729
321,1529343.8241646409
2,1, 7,21, 0,15,10.00,20.00,SummerDesignDay
8,21.799989308895414
10,9339537.259014059
321,1695468.8700590688
2,1, 7,21, 0,15,20.00,30.00,SummerDesignDay
8,21.799989308895414
10,9382656.59665165
321,1895856.160875465
2,1, 7,21, 0,15,30.00,40.00,SummerDesignDay
8,21.799989308895414
10,9427678.88073723
321,1329344.6968243148
2,1, 7,21, 0,15,40.00,50.00,SummerDesignDay
8,21.799989308895414
10,9467291.969017035
321,1895856.160875465
2,1, 7,21, 0,15,50.00,60.00,SummerDesignDay
8,21.799989308895414
10,9503601.755278394
321,1544831.60107598
2,1, 7,21, 0,15, 0.00,60.00,SummerDesignDay
555,29.46634195878556
595,23.997837661172509
635,23.997962565830098
675,23.998729804234256
715,23.998011824508187
755,23.99821710148767
2,1, 7,21, 0,16, 0.00,10.00,SummerDesignDay
8,21.771094855856704
10,9527876.52347647
321,1680007.9650835323
2,1, 7,21, 0,16,10.00,20.00,SummerDesignDay
8,21.742168014681356
10,9541152.728597375
321,1895856.160875465
2,1, 7,21, 0,16,20.00,30.00,SummerDesignDay
8,21.71320780280698
10,9550829.253550223
321,1329332.6975361873
2,1, 7,21, 0,16,30.00,40.00,SummerDesignDay
8,21.68421463192507
10,9555349.3879547
321,1895856.160875465
2,1, 7,21, 0,16,40.00,50.00,SummerDesignDay
8,21.655184624488759
10,9557175.711976555
321,1560190.6406887486
2,1, 7,21, 0,16,50.00,60.00,SummerDesignDay
8,21.6261256071541
10,9557930.089509648
321,1664676.8380381293
2,1, 7,21, 0,16, 0.00,60.00,SummerDesignDay
555,29.27456688867052
595,23.997527538899534
635,23.997800700570495
675,23.99862534012543
715,23.997751801332915
755,23.99757437032778
2,1, 7,21, 0,17, 0.00,10.00,SummerDesignDay
8,21.587330220761357
10,9550237.943940467
321,1203535.9069747343
2,1, 7,21, 0,17,10.00,20.00,SummerDesignDay
8,21.548471336507889
10,9526361.137389105
321,1527431.335310457
2,1, 7,21, 0,17,20.00,30.00,SummerDesignDay
8,21.509558190151649
10,9512296.839227567
321,1554515.12100893
2,1, 7,21, 0,17,30.00,40.00,SummerDesignDay
8,21.470581299934044
10,9495360.941519062
321,1187670.1790912688
2,1, 7,21, 0,17,40.00,50.00,SummerDesignDay
8,21.431549204917386
10,9477583.221053545
321,1186697.6427746323
2,1, 7,21, 0,17,50.00,60.00,SummerDesignDay
8,21.392452600030727
10,9459011.28286808
321,1185505.9214572826
2,1, 7,21, 0,17, 0.00,60.00,SummerDesignDay
555,28.90237325458861
595,23.99748764043353
635,23.997792564947816
675,23.998684664690683
715,23.997762181518714
755,23.997901024661599
2,1, 7,21, 0,18, 0.00,10.00,SummerDesignDay
8,21.343500800253975
10,8957135.100352297
321,1074717.8137282693
2,1, 7,21, 0,18,10.00,20.00,SummerDesignDay
8,21.29445517999728
10,8900142.16577785
321,1061443.5363101236
2,1, 7,21, 0,18,20.00,30.00,SummerDesignDay
8,21.24531961332415
10,8860049.059496372
321,1061733.7045736316
2,1, 7,21, 0,18,30.00,40.00,SummerDesignDay
8,21.196085706061159
10,8820771.902255265
321,1061980.5932356273
2,1, 7,21, 0,18,40.00,50.00,SummerDesignDay
8,21.146756926413827
10,8783168.616159734
321,1062227.9853900159
2,1, 7,21, 0,18,50.00,60.00,SummerDesignDay
8,21.097333755216899
10,8746793.776332535
321,1062477.1930188568
2,1, 7,21, 0,18, 0.00,60.00,SummerDesignDay
555,28.38324361899883
595,23.99795894533929
635,23.99820099798482
675,23.998967197347594
715,23.998186224039839
755,23.998259546437198
2,1, 7,21, 0,19, 0.00,10.00,SummerDesignDay
8,21.023019732832933
10,6223717.3603253089
321,799694.5608701641
2,1, 7,21, 0,19,10.00,20.00,SummerDesignDay
8,20.948490549703029
10,6123017.268384018
321,610724.0937026739
2,1, 7,21, 0,19,20.00,30.00,SummerDesignDay
8,20.873745184382885
10,6052468.626655865
321,471205.4225651051
2,1, 7,21, 0,19,30.00,40.00,SummerDesignDay
8,20.798782612519024
10,5978823.100867284
321,485678.9397454484
2,1, 7,21, 0,19,40.00,50.00,SummerDesignDay
8,20.723605634987398
10,5907685.309174192
321,775530.1497729876
2,1, 7,21, 0,19,50.00,60.00,SummerDesignDay
8,20.648205443782066
10,5835880.831921634
321,776285.2971329995
2,1, 7,21, 0,19, 0.00,60.00,SummerDesignDay
555,27.734282392599636
595,23.999070753553739
635,23.99914444327069
675,23.999489402451759
715,23.999044994172114
755,23.999168201789229
2,1, 7,21, 0,20, 0.00,10.00,SummerDesignDay
8,20.59277197915242
10,3922652.3368541796
321,694960.2240242882
2,1, 7,21, 0,20,10.00,20.00,SummerDesignDay
8,20.537219972964399
10,3799467.8912789148
321,373500.9723405804
2,1, 7,21, 0,20,20.00,30.00,SummerDesignDay
8,20.48154799091199
10,3696167.6760429895
321,325026.34107527547
2,1, 7,21, 0,20,30.00,40.00,SummerDesignDay
8,20.425752225515759
10,3591691.990379858
321,684259.9851031818
2,1, 7,21, 0,20,40.00,50.00,SummerDesignDay
8,20.369840248455387
10,3515698.3960092195
321,687656.2947037114
2,1, 7,21, 0,20,50.00,60.00,SummerDesignDay
8,20.313807280186916
10,3454867.811924908
321,151652.54241585049
2,1, 7,21, 0,20, 0.00,60.00,SummerDesignDay
555,26.992852250099508
595,23.99972389405275
635,23.99971306006414
675,23.99980320293696
715,23.999678928431029
755,23.999792099549024
2,1, 7,21, 0,21, 0.00,10.00,SummerDesignDay
8,20.267875513679358
10,3405228.376357627
321,544499.8415793022
2,1, 7,21, 0,21,10.00,20.00,SummerDesignDay
8,20.221856772507928
10,3361993.492327261
321,685122.4847500958
2,1, 7,21, 0,21,20.00,30.00,SummerDesignDay
8,20.17575730066602
10,3323118.0870765375
321,628325.5558628022
2,1, 7,21, 0,21,30.00,40.00,SummerDesignDay
8,20.129575525226004
10,3287681.9921651377
321,72169.50725393386
2,1, 7,21, 0,21,40.00,50.00,SummerDesignDay
8,20.08331608345884
10,3255127.3617452497
321,683552.7916576348
2,1, 7,21, 0,21,50.00,60.00,SummerDesignDay
8,20.03696962431749
10,3224520.9516509065
321,686253.2101328393
2,1, 7,21, 0,21, 0.00,60.00,SummerDesignDay
555,26.447627628377693
595,23.999875382867616
635,23.99984600714762
675,23.999886163229026
715,23.999863319453753
755,23.99992684573952
2,1, 7,21, 0,22, 0.00,10.00,SummerDesignDay
8,19.99054090879275
10,1070658.8385824664
321,401522.02820432957
2,1, 7,21, 0,22,10.00,20.00,SummerDesignDay
8,19.944033557607388
10,1080224.0194722187
321,402158.04661888218
2,1, 7,21, 0,22,20.00,30.00,SummerDesignDay
8,19.89743885871503
10,1000613.516728246
321,748430.204471564
2,1, 7,21, 0,22,30.00,40.00,SummerDesignDay
8,19.850760861623937
10,1086674.5602478262
321,686596.8899657292
2,1, 7,21, 0,22,40.00,50.00,SummerDesignDay
8,19.804003776854694
10,1000613.516728246
321,167949.57503139828
2,1, 7,21, 0,22,50.00,60.00,SummerDesignDay
8,19.757157595162949
10,1067067.675229809
321,528332.310815536
2,1, 7,21, 0,22, 0.00,60.00,SummerDesignDay
555,26.16560131229313
595,25.180143318473268
635,25.31254791570807
675,25.41726926766565
715,25.283591393649329
755,25.66045436587765
2,1, 7,21, 0,23, 0.00,10.00,SummerDesignDay
8,19.720666551636989
10,1048703.4901051648
321,594745.4682619826
2,1, 7,21, 0,23,10.00,20.00,SummerDesignDay
8,19.684119477065886
10,1000613.516728246
321,12000.0
2,1, 7,21, 0,23,20.00,30.00,SummerDesignDay
8,19.647526513618759
10,1000613.516728246
321,184366.8083750425
2,1, 7,21, 0,23,30.00,40.00,SummerDesignDay
8,19.6108822727292
10,1000613.516728246
321,409698.946055015
2,1, 7,21, 0,23,40.00,50.00,SummerDesignDay
8,19.574181717726309
10,1000613.516728246
321,12000.0
2,1, 7,21, 0,23,50.00,60.00,SummerDesignDay
8,19.537434025172329
10,1000613.516728246
321,583601.632880766
2,1, 7,21, 0,23, 0.00,60.00,SummerDesignDay
555,25.902549151574179
595,25.817252274633775
635,25.901552761102406
675,26.09966992489426
715,25.863519920033896
755,26.460934289861546
2,1, 7,21, 0,24, 0.00,10.00,SummerDesignDay
8,19.50063519373203
10,871939.1225230446
321,12000.0
2,1, 7,21, 0,24,10.00,20.00,SummerDesignDay
8,19.463780045562748
10,871939.1225230446
321,587675.2848311828
2,1, 7,21, 0,24,20.00,30.00,SummerDesignDay
8,19.42687776521098
10,871939.1225230446
321,12000.0
2,1, 7,21, 0,24,30.00,40.00,SummerDesignDay
8,19.389928824990219
10,871939.1225230446
321,12000.0
2,1, 7,21, 0,24,40.00,50.00,SummerDesignDay
8,19.352911582935034
10,871939.1225230446
321,580469.9020537166
2,1, 7,21, 0,24,50.00,60.00,SummerDesignDay
8,19.31585289854638
10,871939.1225230446
321,12000.0
2,1, 7,21, 0,24, 0.00,60.00,SummerDesignDay
555,25.70278848492167
595,25.728611328431318
635,25.79210628872509
675,26.083686151784265
715,25.756815717962878
755,26.47850979289956
3,1, 7,21, 0,SummerDesignDay
556,57.60211233167558,49.669097047768207,14,60,65.00062982557872, 5,50
596,58.64606247017297,52.79428675914416,22,19,67.26497304178374, 7, 5
636,57.45920999879967,52.15538037153667,22,19,67.4432634413882, 7, 4
676,54.207343398994549,45.670606809642467, 9,40,63.59765856289881, 7, 5
716,57.785873255429837,52.24183958723964,22,19,66.89535820081334, 7, 4
756,54.50216314222731,47.11648168598035,19,40,66.23188545867315, 7, 4
4,1, 7
7,25.183875000000005,20.5,21, 5,60,30.6,21,14,60
1,OTTAWA=MACDONALD-CARTIER INTL ANN HTG 99.6% CONDNS DB,  45.32, -75.67,  -5.00, 114.90
2,1, 1,21, 0, 1, 0.00,10.00,WinterDesignDay
8,-24.2
10,871939.1225230446
321,11796219.042216273
2,1, 1,21, 0, 1,10.00,20.00,WinterDesignDay
8,-24.2
10,871939.1225230446
321,12062846.388458055
2,1, 1,21, 0, 1,20.00,30.00,WinterDesignDay
8,-24.2
10,871939.1225230446
321,12327251.215004156
2,1, 1,21, 0, 1,30.00,40.00,WinterDesignDay
8,-24.2
10,871939.1225230446
321,12011459.411132329
2,1, 1,21, 0, 1,40.00,50.00,WinterDesignDay
8,-24.2
10,871939.1225230446
321,12656323.798622344
2,1, 1,21, 0, 1,50.00,60.00,WinterDesignDay
8,-24.2
10,871939.1225230446
321,12145379.020226386
2,1, 1,21, 0, 1, 0.00,60.00,WinterDesignDay
555,11.260519872431872
595,18.000025179852956
635,18.000133069367509
675,18.000081201534035
715,18.0001285541253
755,18.00007247558725
2,1, 1,21, 0, 2, 0.00,10.00,WinterDesignDay
8,-24.2
10,871939.1225230446
321,12789446.242776622
2,1, 1,21, 0, 2,10.00,20.00,WinterDesignDay
8,-24.2
10,871939.1225230446
321,12273706.633024469
2,1, 1,21, 0, 2,20.00,30.00,WinterDesignDay
8,-24.2
10,871939.1225230446
321,12917513.031951426
2,1, 1,21, 0, 2,30.00,40.00,WinterDesignDay
8,-24.2
10,871939.1225230446
321,12397570.17110711
2,1, 1,21, 0, 2,40.00,50.00,WinterDesignDay
8,-24.2
10,871939.1225230446
321,12970999.57376387
2,1, 1,21, 0, 2,50.00,60.00,WinterDesignDay
8,-24.2
10,871939.1225230446
321,12586976.297540153
2,1, 1,21, 0, 2, 0.00,60.00,WinterDesignDay
555,11.051064423191184
595,18.00002862759262
635,18.00010634094078
675,18.000067938107269
715,18.00010299256416
755,18.00006136470238
2,1, 1,21, 0, 3, 0.00,10.00,WinterDesignDay
8,-24.2
10,871939.1225230446
321,12702040.302248989
2,1, 1,21, 0, 3,10.00,20.00,WinterDesignDay
8,-24.2
10,871939.1225230446
321,13085306.282932088
2,1, 1,21, 0, 3,20.00,30.00,WinterDesignDay
8,-24.2
10,871939.1225230446
321,12691345.589929279
2,1, 1,21, 0, 3,30.00,40.00,WinterDesignDay
8,-24.2
10,871939.1225230446
321,13325366.126299708
2,1, 1,21, 0, 3,40.00,50.00,WinterDesignDay
8,-24.2
10,871939.1225230446
321,12803716.008376582
2,1, 1,21, 0, 3,50.00,60.00,WinterDesignDay
8,-24.2
10,871939.1225230446
321,13438495.00368826
2,1, 1,21, 0, 3, 0.00,60.00,WinterDesignDay
555,10.856574913994999
595,18.000028946770255
635,18.000087135928358
675,18.000057533284687
715,18.000084560763257
755,18.00005245711621
2,1, 1,21, 0, 4, 0.00,10.00,WinterDesignDay
8,-24.2
10,871939.1225230446
321,12913312.10164176
2,1, 1,21, 0, 4,10.00,20.00,WinterDesignDay
8,-24.2
10,871939.1225230446
321,13548806.623520488
2,1, 1,21, 0, 4,20.00,30.00,WinterDesignDay
8,-24.2
10,871939.1225230446
321,13020219.561904703
2,1, 1,21, 0, 4,30.00,40.00,WinterDesignDay
8,-24.2
10,871939.1225230446
321,13523221.603426245
2,1, 1,21, 0, 4,40.00,50.00,WinterDesignDay
8,-24.2
10,871939.1225230446
321,13255332.940216024
2,1, 1,21, 0, 4,50.00,60.00,WinterDesignDay
8,-24.2
10,871939.1225230446
321,13236514.648482988
2,1, 1,21, 0, 4, 0.00,60.00,WinterDesignDay
555,10.677396649579168
595,18.000028275502804
635,18.000073696960248
675,18.00004959604732
715,18.00007165160237
755,18.00004550880966
2,1, 1,21, 0, 5, 0.00,10.00,WinterDesignDay
8,-24.2
10,871939.1225230446
321,13740990.587585444
2,1, 1,21, 0, 5,10.00,20.00,WinterDesignDay
8,-24.2
10,871939.1225230446
321,13275633.838895059
2,1, 1,21, 0, 5,20.00,30.00,WinterDesignDay
8,-24.2
10,871939.1225230446
321,13902744.084480908
2,1, 1,21, 0, 5,30.00,40.00,WinterDesignDay
8,-24.2
10,871939.1225230446
321,13373529.617140349
2,1, 1,21, 0, 5,40.00,50.00,WinterDesignDay
8,-24.2
10,871939.1225230446
321,14001495.795454381
2,1, 1,21, 0, 5,50.00,60.00,WinterDesignDay
8,-24.2
10,871939.1225230446
321,13468905.151163942
2,1, 1,21, 0, 5, 0.00,60.00,WinterDesignDay
555,10.513468969629445
595,18.00002749658518
635,18.000064481213788
675,18.000043639674514
715,18.000062808069634
755,18.00004017083562
2,1, 1,21, 0, 6, 0.00,10.00,WinterDesignDay
8,-24.2
10,871939.1225230446
321,14097703.63253678
2,1, 1,21, 0, 6,10.00,20.00,WinterDesignDay
8,-24.2
10,871939.1225230446
321,13561832.732570574
2,1, 1,21, 0, 6,20.00,30.00,WinterDesignDay
8,-24.2
10,871939.1225230446
321,13997735.706000139
2,1, 1,21, 0, 6,30.00,40.00,WinterDesignDay
8,-24.2
10,871939.1225230446
321,13842430.116987016
2,1, 1,21, 0, 6,40.00,50.00,WinterDesignDay
8,-24.2
10,871939.1225230446
321,13696310.743792117
2,1, 1,21, 0, 6,50.00,60.00,WinterDesignDay
8,-24.2
10,871939.1225230446
321,14315983.422319996
2,1, 1,21, 0, 6, 0.00,60.00,WinterDesignDay
555,10.363505452949037
595,18.000026964820149
635,18.00005829666702
675,18.000039232471285
715,18.00005689115299
755,18.000036121025759
2,1, 1,21, 0, 7, 0.00,10.00,WinterDesignDay
8,-24.2
10,914450.8096408843
321,22205019.524165628
2,1, 1,21, 0, 7,10.00,20.00,WinterDesignDay
8,-24.2
10,871939.1225230446
321,15672409.1462611
2,1, 1,21, 0, 7,20.00,30.00,WinterDesignDay
8,-24.2
10,871939.1225230446
321,20533872.363332668
2,1, 1,21, 0, 7,30.00,40.00,WinterDesignDay
8,-24.2
10,871939.1225230446
321,19737422.570464698
2,1, 1,21, 0, 7,40.00,50.00,WinterDesignDay
8,-24.2
10,871939.1225230446
321,18881525.263270968
2,1, 1,21, 0, 7,50.00,60.00,WinterDesignDay
8,-24.2
10,871939.1225230446
321,19316993.45663876
2,1, 1,21, 0, 7, 0.00,60.00,WinterDesignDay
555,10.234448645132965
595,19.971701731878665
635,19.981150154606877
675,20.000121102104698
715,19.98037784241593
755,19.998323616572784
2,1, 1,21, 0, 8, 0.00,10.00,WinterDesignDay
8,-24.2
10,1767396.5765611255
321,29201953.8989821
2,1, 1,21, 0, 8,10.00,20.00,WinterDesignDay
8,-24.2
10,1745415.5180934023
321,20660565.321427216
2,1, 1,21, 0, 8,20.00,30.00,WinterDesignDay
8,-24.2
10,1745415.5180934023
321,24854372.013450196
2,1, 1,21, 0, 8,30.00,40.00,WinterDesignDay
8,-24.2
10,1745415.5180934023
321,24047963.26735047
2,1, 1,21, 0, 8,40.00,50.00,WinterDesignDay
8,-24.2
10,1745415.5180934023
321,23530928.315822767
2,1, 1,21, 0, 8,50.00,60.00,WinterDesignDay
8,-24.2
10,1745415.5180934023
321,22772546.518580524
2,1, 1,21, 0, 8, 0.00,60.00,WinterDesignDay
555,10.186059312204199
595,21.96696812243279
635,21.975886848005329
675,21.990937541803836
715,21.97515133660983
755,21.995993461775766
2,1, 1,21, 0, 9, 0.00,10.00,WinterDesignDay
8,-24.2
10,5069227.909751648
321,21123324.012198338
2,1, 1,21, 0, 9,10.00,20.00,WinterDesignDay
8,-24.2
10,5069227.909751648
321,20730751.994448566
2,1, 1,21, 0, 9,20.00,30.00,WinterDesignDay
8,-24.2
10,5069227.909751648
321,20284607.01337071
2,1, 1,21, 0, 9,30.00,40.00,WinterDesignDay
8,-24.2
10,5069227.909751648
321,19926857.45470829
2,1, 1,21, 0, 9,40.00,50.00,WinterDesignDay
8,-24.2
10,5069227.909751648
321,19725647.36347885
2,1, 1,21, 0, 9,50.00,60.00,WinterDesignDay
8,-24.2
10,5069227.909751648
321,19552898.500656964
2,1, 1,21, 0, 9, 0.00,60.00,WinterDesignDay
555,10.27694553570081
595,22.000303167191846
635,22.000476590640337
675,22.000334324574369
715,22.000468641163708
755,22.000304961393309
2,1, 1,21, 0,10, 0.00,10.00,WinterDesignDay
8,-24.2
10,5667499.413566963
321,18830244.513275684
2,1, 1,21, 0,10,10.00,20.00,WinterDesignDay
8,-24.2
10,5667499.413566963
321,18791191.64391974
2,1, 1,21, 0,10,20.00,30.00,WinterDesignDay
8,-24.2
10,5667499.413566963
321,18776433.17749517
2,1, 1,21, 0,10,30.00,40.00,WinterDesignDay
8,-24.2
10,5667499.413566963
321,18650233.565963434
2,1, 1,21, 0,10,40.00,50.00,WinterDesignDay
8,-24.2
10,5667499.413566963
321,18357135.81002418
2,1, 1,21, 0,10,50.00,60.00,WinterDesignDay
8,-24.2
10,5667499.413566963
321,18153138.92432313
2,1, 1,21, 0,10, 0.00,60.00,WinterDesignDay
555,10.460944292938227
595,22.000465036219869