Program Version,EnergyPlus, Version 8.9.0-eba93e8e1b, YMD=2019.08.13 13:25
1,5,Environment Title[],Latitude[deg],Longitude[deg],Time Zone[],Elevation[m]
2,8,Day of Simulation[],Month[],Day of Month[],DST Indicator[1=yes 0=no],Hour[],StartMinute[],EndMinute[],DayType
3,5,Cumulative Day of Simulation[],Month[],Day of Month[],DST Indicator[1=yes 0=no],DayType  ! When Daily Report Variables Requested
4,2,Cumulative Days of Simulation[],Month[]  ! When Monthly Report Variables Requested
5,1,Cumulative Days of Simulation[] ! When Run Period Report Variables Requested
6,1,Calendar Year of Simulation[] ! When Annual Report Variables Requested
7,9,Environment,Site Outdoor Air Drybulb Temperature [C] !Monthly [Value,Min,Day,Hour,Minute,Max,Day,Hour,Minute]
8,1,Environment,Site Outdoor Air Wetbulb Temperature [C] !TimeStep
572,1,ALL_ST=OFFICE ENCLOSED <= 25 M2_FL=BUILDING STORY 1_SCH=A,Zone Air Temperature [C] !Hourly
573,7,ALL_ST=OFFICE ENCLOSED <= 25 M2_FL=BUILDING STORY 1_SCH=A,Zone Air Relative Humidity [%] !Daily [Value,Min,Hour,Minute,Max,Hour,Minute]
612,1,ALL_ST=WAREHOUSE STORAGE AREA MEDIUM TO BULKY PALLETIZED ITEMS_FL=BUILDING STORY 1_SCH=A,Zone Air Temperature [C] !Hourly
613,7,ALL_ST=WAREHOUSE STORAGE AREA MEDIUM TO BULKY PALLETIZED ITEMS_FL=BUILDING STORY 1_SCH=A,Zone Air Relative Humidity [%] !Daily [Value,Min,Hour,Minute,Max,Hour,Minute]
652,1,ALL_ST=WAREHOUSE STORAGE AREA SMALL HAND-CARRIED ITEMS(4)_FL=BUILDING STORY 1_SCH=A,Zone Air Temperature [C] !Hourly
653,7,ALL_ST=WAREHOUSE STORAGE AREA SMALL HAND-CARRIED ITEMS(4)_FL=BUILDING STORY 1_SCH=A,Zone Air Relative Humidity [%] !Daily [Value,Min,Hour,Minute,Max,Hour,Minute]
10,1,Electricity:Facility [J] !TimeStep
End of Data Dictionary
1,RUN PERIOD 1,  62.46,-114.44,  -7.00, 205.70
2,1, 1, 1, 0, 1, 0.00,60.00,Sunday
8,-35.92514233225941
10,7932021.733420323
2,1, 1, 1, 0, 1, 0.00,60.00,Sunday
572,18.000552884881988
612,18.000929982108315
652,17.998456291524847
2,1, 1, 1, 0, 2, 0.00,60.00,Sunday
8,-38.38837669659448
10,8893850.126328756
2,1, 1, 1, 0, 2, 0.00,60.00,Sunday
572,18.000201455912469
612,18.000905898979207
652,18.000844097740978
2,1, 1, 1, 0, 3, 0.00,60.00,Sunday
8,-40.07132949792645
10,9863623.429051267
2,1, 1, 1, 0, 3, 0.00,60.00,Sunday
572,17.999136543103398
612,17.999223061767009
652,17.998803830710409
2,1, 1, 1, 0, 4, 0.00,60.00,Sunday
8,-40.861534129892799
10,8892321.06440485
2,1, 1, 1, 0, 4, 0.00,60.00,Sunday
572,18.00030349727307
612,17.99919683670473
652,17.99812504408697
2,1, 1, 1, 0, 5, 0.00,60.00,Sunday
8,-41.0601895727277
10,8896505.765230446
2,1, 1, 1, 0, 5, 0.00,60.00,Sunday
572,17.99994857033636
612,18.00048473376109
652,17.998915554326197
2,1, 1, 1, 0, 6, 0.00,60.00,Sunday
8,-41.159506339022808
10,9858961.976536965
2,1, 1, 1, 0, 6, 0.00,60.00,Sunday
572,17.99913066060267
612,18.000308113177505
652,18.000848182434934
2,1, 1, 1, 0, 7, 0.00,60.00,Sunday
8,-40.662937238447
10,8893752.61382264
2,1, 1, 1, 0, 7, 0.00,60.00,Sunday
572,17.999640617243036
612,18.00066692703373
652,18.00197802228394
2,1, 1, 1, 0, 8, 0.00,60.00,Sunday
8,-41.05842865816848
10,9098281.477422206
2,1, 1, 1, 0, 8, 0.00,60.00,Sunday
572,17.99957386660686
612,18.00069899247597
652,17.99973585923631
2,1, 1, 1, 0, 9, 0.00,60.00,Sunday
8,-41.15598629891789
10,9654554.878239641
2,1, 1, 1, 0, 9, 0.00,60.00,Sunday
572,17.999200307455607
612,18.00087755150701
652,17.999661400541965
2,1, 1, 1, 0,10, 0.00,60.00,Sunday
8,-40.7623362890056
10,8895353.520804676
2,1, 1, 1, 0,10, 0.00,60.00,Sunday
572,17.999428647825746
612,18.00088975835295
652,18.001716912215217
2,1, 1, 1, 0,11, 0.00,60.00,Sunday
8,-40.17065079809882
10,9861968.82502094
2,1, 1, 1, 0,11, 0.00,60.00,Sunday
572,18.000606179423185
612,17.999997784933087
652,17.999594026593443
2,1, 1, 1, 0,12, 0.00,60.00,Sunday
8,-39.97226031938007
10,8892830.162256046
2,1, 1, 1, 0,12, 0.00,60.00,Sunday
572,18.00031283714386
612,18.000119821614708
652,17.99951743542928
2,1, 1, 1, 0,13, 0.00,60.00,Sunday
8,-39.775983806606
10,8897214.196881568
2,1, 1, 1, 0,13, 0.00,60.00,Sunday
572,18.000286453563168
612,17.999873594869145
652,18.000299407461268
2,1, 1, 1, 0,14, 0.00,60.00,Sunday
8,-39.48072793591961
10,9857074.657360467
2,1, 1, 1, 0,14, 0.00,60.00,Sunday
572,18.00001454621129
612,17.99959811293069
652,18.000546581126036
2,1, 1, 1, 0,15, 0.00,60.00,Sunday
8,-40.26993835811722
10,8894323.239658216
2,1, 1, 1, 0,15, 0.00,60.00,Sunday
572,17.999942246254816
612,17.999891151457587
652,17.99998954908428
2,1, 1, 1, 0,16, 0.00,60.00,Sunday
8,-40.76051225743873
10,9817905.459739207
2,1, 1, 1, 0,16, 0.00,60.00,Sunday
572,18.00046064874296
612,18.00046019299738
652,17.99999132603334
2,1, 1, 1, 0,17, 0.00,60.00,Sunday
8,-41.43675385086566
10,8938247.480443849
2,1, 1, 1, 0,17, 0.00,60.00,Sunday
572,17.999527371386479
612,17.999319540054246
652,17.998566470710189
2,1, 1, 1, 0,18, 0.00,60.00,Sunday
8,-41.85020779615728
10,8895977.222020394
2,1, 1, 1, 0,18, 0.00,60.00,Sunday
572,18.00067294701976
612,17.999166446452038
652,17.9992806015228
2,1, 1, 1, 0,19, 0.00,60.00,Sunday
8,-42.04749268459213
10,9860331.65681787
2,1, 1, 1, 0,19, 0.00,60.00,Sunday
572,18.00024190979882
612,18.0008223555324
652,18.00104496058384
2,1, 1, 1, 0,20, 0.00,60.00,Sunday
8,-42.24803987702204
10,8893331.11630444
2,1, 1, 1, 0,20, 0.00,60.00,Sunday
572,18.000460382239987
612,17.99937733087876
652,17.998726090868826
2,1, 1, 1, 0,21, 0.00,60.00,Sunday
8,-42.14534131795508
10,8897911.400772075
2,1, 1, 1, 0,21, 0.00,60.00,Sunday
572,18.000515813042925
612,17.99904962336349
652,18.00038821456953
2,1, 1, 1, 0,22, 0.00,60.00,Sunday
8,-42.94144001909521
10,9855119.60913641
2,1, 1, 1, 0,22, 0.00,60.00,Sunday
572,17.999800138707998
612,18.000212244280143
652,18.000824273213487
2,1, 1, 1, 0,23, 0.00,60.00,Sunday
8,-43.139041530297969
10,8894887.153212987
2,1, 1, 1, 0,23, 0.00,60.00,Sunday
572,18.00001398726031
612,17.999296380008717
652,18.00013964053608
2,1, 1, 1, 0,24, 0.00,60.00,Sunday
8,-42.93995573991187
10,9863260.071078713
2,1, 1, 1, 0,24, 0.00,60.00,Sunday
572,17.99974524698063
612,17.999731804376787
652,18.00006846774517
3,1, 1, 1, 0,Sunday
573,48.51676294316359,44.84954811963131, 1,60,52.05469827183008,24,60
613,3.3010572299155025,3.0931401124586057, 1,60,3.50014409444104,24,60
653,28.5271340395353,26.38843283240242, 1,60,30.592845009736366,24,60
2,2, 1, 2, 0, 1, 0.00,60.00,Monday
8,-42.740842366326187
10,8892442.41078999
2,2, 1, 2, 0, 1, 0.00,60.00,Monday
572,17.999871534475493
612,18.000885109934648
652,17.999212120787609
2,2, 1, 2, 0, 2, 0.00,60.00,Monday
8,-43.434945643439558
10,8896674.026168658
2,2, 1, 2, 0, 2, 0.00,60.00,Monday
572,17.999538340095936
612,17.999875190888799
652,17.999943133429679
2,2, 1, 2, 0, 3, 0.00,60.00,Monday
8,-43.834715916068919
10,9858519.718008185
2,2, 1, 2, 0, 3, 0.00,60.00,Monday
572,17.99962745698771
612,18.000140962449728
652,17.998990282043498
2,2, 1, 2, 0, 4, 0.00,60.00,Monday
8,-44.12579481940027
10,8893888.033291018
2,2, 1, 2, 0, 4, 0.00,60.00,Monday
572,18.000140961344987
612,17.999356881010227
652,17.998681611622687
2,2, 1, 2, 0, 5, 0.00,60.00,Monday
8,-43.63004286067593
10,9296862.097195466
2,2, 1, 2, 0, 5, 0.00,60.00,Monday
572,17.999556775798817
612,18.000368414871926
652,18.000008602918567
2,2, 1, 2, 0, 6, 0.00,60.00,Monday
8,-44.03002832363075
10,9456805.748664068
2,2, 1, 2, 0, 6, 0.00,60.00,Monday
572,18.000132124229038
612,17.999512270881668
652,18.000428752394688
2,2, 1, 2, 0, 7, 0.00,60.00,Monday
8,-44.4249308166128
10,88111120.0121379
2,2, 1, 2, 0, 7, 0.00,60.00,Monday
572,20.06762022985159
612,19.922733880858197
652,20.094813003589019
2,2, 1, 2, 0, 8, 0.00,60.00,Monday
8,-43.82402995950112
10,22592608.80577593
2,2, 1, 2, 0, 8, 0.00,60.00,Monday
572,21.746175131408493
612,21.671562053061053
652,21.95032997966394
2,2, 1, 2, 0, 9, 0.00,60.00,Monday
8,-43.13179097045383
10,89238453.02484598
2,2, 1, 2, 0, 9, 0.00,60.00,Monday
572,22.083293516453638
612,22.07271935673233
652,22.14133503319958
2,2, 1, 2, 0,10, 0.00,60.00,Monday
8,-43.13756099115118
10,95419405.27004525
2,2, 1, 2, 0,10, 0.00,60.00,Monday
572,22.12258422958917
612,22.12694048836927
652,22.193393898159223
2,2, 1, 2, 0,11, 0.00,60.00,Monday
8,-42.53401999873205
10,102981380.85756949
2,2, 1, 2, 0,11, 0.00,60.00,Monday
572,22.125931684227404
612,22.129145718486659
652,22.19849804309676
2,2, 1, 2, 0,12, 0.00,60.00,Monday
8,-42.837344069622229
10,103578569.24129229
2,2, 1, 2, 0,12, 0.00,60.00,Monday
572,22.13021092753353
612,22.130052122613848
652,22.204217442077164
2,2, 1, 2, 0,13, 0.00,60.00,Monday
8,-42.044138384577099
10,103581150.713531
2,2, 1, 2, 0,13, 0.00,60.00,Monday
572,22.13288298856796
612,22.130380371675498
652,22.206134242935659
2,2, 1, 2, 0,14, 0.00,60.00,Monday
8,-41.74898682667996
10,103585163.814715
2,2, 1, 2, 0,14, 0.00,60.00,Monday
572,22.135799583372653
612,22.131137381728477
652,22.203781715760934
2,2, 1, 2, 0,15, 0.00,60.00,Monday
8,-41.748967459544989
10,103589638.26354553
2,2, 1, 2, 0,15, 0.00,60.00,Monday
572,22.137649428129128
612,22.130314524874426
652,22.206908716283157
2,2, 1, 2, 0,16, 0.00,60.00,Monday
8,-42.73921996532552
10,103594586.78224083
2,2, 1, 2, 0,16, 0.00,60.00,Monday
572,22.13958570645183
612,22.130793252202545
652,22.20847339682326
2,2, 1, 2, 0,17, 0.00,60.00,Monday
8,-42.14517116356979
10,100283591.74141784
2,2, 1, 2, 0,17, 0.00,60.00,Monday
572,22.14183920068514
612,22.12892609643502
652,22.20703517253236
2,2, 1, 2, 0,18, 0.00,60.00,Monday
8,-42.145135450030917
10,91628442.3247757
2,2, 1, 2, 0,18, 0.00,60.00,Monday
572,22.14333879565725
612,22.130467340551968
652,22.205060681798707
2,2, 1, 2, 0,19, 0.00,60.00,Monday
8,-42.44207415836126
10,68445644.05132179
2,2, 1, 2, 0,19, 0.00,60.00,Monday
572,22.14408133574031
612,22.12928672453538
652,22.206118758842206
2,2, 1, 2, 0,20, 0.00,60.00,Monday
8,-39.982286148460079
10,24225168.988062275
2,2, 1, 2, 0,20, 0.00,60.00,Monday
572,22.0000461686656
612,22.000359810816037
652,21.999677446337619
2,2, 1, 2, 0,21, 0.00,60.00,Monday
8,-40.061030382121348
10,24215064.462676534
2,2, 1, 2, 0,21, 0.00,60.00,Monday
572,22.000085384484775
612,22.000796287516335
652,22.000003606631503
2,2, 1, 2, 0,22, 0.00,60.00,Monday
8,-39.27320709951826
10,11270471.44687388
2,2, 1, 2, 0,22, 0.00,60.00,Monday
572,20.715381483605129
612,20.731179952165225
652,19.65351332844293
2,2, 1, 2, 0,23, 0.00,60.00,Monday
8,-39.07705145932549
10,10785244.927145895
2,2, 1, 2, 0,23, 0.00,60.00,Monday
572,20.223058803007264
612,19.577152975068289
652,18.226803051695769
2,2, 1, 2, 0,24, 0.00,60.00,Monday
8,-39.475900267349398
10,8904352.618408775
2,2, 1, 2, 0,24, 0.00,60.00,Monday
572,19.370662215944319
612,18.068586153909548
652,18.000144073411378
3,2, 1, 2, 0,Monday
573,61.214929523037849,42.42112442678061, 8,25,93.44387702284453,24,60
613,4.844874840303345,2.835961086269541, 8,25,8.79224868366144,24,60
653,34.659795324470319,24.891608999281833, 8,17,53.90772546770489,24,60
2,3, 1, 3, 0, 1, 0.00,60.00,Tuesday
8,-40.16823469326665
10,8897894.57461403
2,3, 1, 3, 0, 1, 0.00,60.00,Tuesday
572,19.04718667157647
612,17.999488839958539
652,17.999911611000149
2,3, 1, 3, 0, 2, 0.00,60.00,Tuesday
8,-40.35886858002187
10,9856287.052849357
2,3, 1, 3, 0, 2, 0.00,60.00,Tuesday
572,18.482946465391195
612,17.999886929075318
652,17.99947435024005
2,3, 1, 3, 0, 3, 0.00,60.00,Tuesday
8,-40.85567537404507
10,8889770.25307221
2,3, 1, 3, 0, 3, 0.00,60.00,Tuesday
572,18.20731058331945
612,18.000467434384207
652,18.000040287492995
2,3, 1, 3, 0, 4, 0.00,60.00,Tuesday
8,-40.06486417076954
10,9863623.559462643
2,3, 1, 3, 0, 4, 0.00,60.00,Tuesday
572,17.9999907515186
612,18.00022138528028
652,18.0013232072686
2,3, 1, 3, 0, 5, 0.00,60.00,Tuesday
8,-40.269357197768567
10,8892021.420787802
2,3, 1, 3, 0, 5, 0.00,60.00,Tuesday
572,17.999908335887278
612,17.999828042702285
652,18.00004145139643
2,3, 1, 3, 0, 6, 0.00,60.00,Tuesday
8,-39.77116538108454
10,8896096.219078536
2,3, 1, 3, 0, 6, 0.00,60.00,Tuesday
572,17.9997774235931
612,18.000567179744626
652,18.00178620369675
2,3, 1, 3, 0, 7, 0.00,60.00,Tuesday
8,-39.374323511270869
10,88346578.12624343
2,3, 1, 3, 0, 7, 0.00,60.00,Tuesday
572,20.194499362134168
612,19.922753687895726
652,20.095920739571008
2,3, 1, 3, 0, 8, 0.00,60.00,Tuesday
8,-37.89256287118087
10,21550766.01948395
2,3, 1, 3, 0, 8, 0.00,60.00,Tuesday
572,21.85708352215334
612,21.664533322129754
652,21.951749671429416
2,3, 1, 3, 0, 9, 0.00,60.00,Tuesday
8,-37.99155385383269
10,90182977.943082
2,3, 1, 3, 0, 9, 0.00,60.00,Tuesday
572,22.08929607515214
612,22.073031115656968
652,22.144033234970185
2,3, 1, 3, 0,10, 0.00,60.00,Tuesday
8,-37.501948470523519
10,94567176.85034207
2,3, 1, 3, 0,10, 0.00,60.00,Tuesday
572,22.12811189571691
612,22.12656549343905
652,22.19134221915922
2,3, 1, 3, 0,11, 0.00,60.00,Tuesday
8,-37.106394103019088
10,103546924.13434568
2,3, 1, 3, 0,11, 0.00,60.00,Tuesday
572,22.13321513456451
612,22.1283097493243
652,22.201860056206955
2,3, 1, 3, 0,12, 0.00,60.00,Tuesday
8,-36.81559007071354
10,103627243.81676297
2,3, 1, 3, 0,12, 0.00,60.00,Tuesday
572,22.137288930470509
612,22.129544141368848
652,22.20794555735407
2,3, 1, 3, 0,13, 0.00,60.00,Tuesday
8,-36.02265894013302
10,103625031.27035773
2,3, 1, 3, 0,13, 0.00,60.00,Tuesday
572,22.151898316040666
612,22.131659439086748
652,22.22771496633339
2,3, 1, 3, 0,14, 0.00,60.00,Tuesday
8,-34.153295346291738
10,103614709.40682574
2,3, 1, 3, 0,14, 0.00,60.00,Tuesday
572,22.147677608929948
612,22.131777943813775
652,22.236595873111427
2,3, 1, 3, 0,15, 0.00,60.00,Tuesday
8,-34.44120419321665
10,103611808.0709916
2,3, 1, 3, 0,15, 0.00,60.00,Tuesday
572,22.149339158289356
612,22.132640874128346
652,22.237683325293717
2,3, 1, 3, 0,16, 0.00,60.00,Tuesday
8,-34.53608188385093
10,103610540.37726152
2,3, 1, 3, 0,16, 0.00,60.00,Tuesday
572,22.159965806538329
612,22.130541441657539
652,22.22059534430469
2,3, 1, 3, 0,17, 0.00,60.00,Tuesday
8,-33.75173772032454
10,100304408.23955006
2,3, 1, 3, 0,17, 0.00,60.00,Tuesday
572,22.153508423961286
612,22.129650374886979
652,22.208436386716217
2,3, 1, 3, 0,18, 0.00,60.00,Tuesday
8,-33.948718624535917
10,91647067.18135004
2,3, 1, 3, 0,18, 0.00,60.00,Tuesday
572,22.153807261244546
612,22.130128216139146
652,22.21116925030267
2,3, 1, 3, 0,19, 0.00,60.00,Tuesday
8,-34.645783780576937
10,68457769.35436158
2,3, 1, 3, 0,19, 0.00,60.00,Tuesday
572,22.153947186444709
612,22.128992962966995
652,22.206685902010457
2,3, 1, 3, 0,20, 0.00,60.00,Tuesday
8,-34.740706995717577
10,24225169.439325628
2,3, 1, 3, 0,20, 0.00,60.00,Tuesday
572,21.99986162414408
612,21.999545312351107
652,21.999760269762569
2,3, 1, 3, 0,21, 0.00,60.00,Tuesday
8,-34.737136747111239
10,24215065.868746155
2,3, 1, 3, 0,21, 0.00,60.00,Tuesday
572,22.00073179903629
612,22.000328782955728
652,22.002384665362727
2,3, 1, 3, 0,22, 0.00,60.00,Tuesday
8,-34.93440247183091
10,11252328.745407585
2,3, 1, 3, 0,22, 0.00,60.00,Tuesday
572,20.84244536299895
612,20.532012361586309
652,19.292942107371898
2,3, 1, 3, 0,23, 0.00,60.00,Tuesday
8,-34.73729527368756
10,11436679.113020672
2,3, 1, 3, 0,23, 0.00,60.00,Tuesday
572,20.270544125256234
612,19.30514649130563
652,18.113279048907989
2,3, 1, 3, 0,24, 0.00,60.00,Tuesday
8,-34.63881209303845
10,8891972.781729123
2,3, 1, 3, 0,24, 0.00,60.00,Tuesday
572,19.56307071089023
612,18.258114654525096
652,18.000252354607207
3,3, 1, 3, 0,Tuesday
573,88.24124467852761,77.47464042788414, 9,30,100.0, 4,60
613,8.689578372793856,6.948127056938283, 8,34,11.664737177885126,24,36
653,43.16903497385308,32.79288874913217,21,60,54.8255478764654, 6,60
2,4, 1, 4, 0, 1, 0.00,60.00,Wednesday
8,-34.05555637767638
10,8897244.047647458
2,4, 1, 4, 0, 1, 0.00,60.00,Wednesday
572,19.1761097551018
612,17.999714025908795
652,18.000081081379315
2,4, 1, 4, 0, 2, 0.00,60.00,Wednesday
8,-33.457186218044359
10,9854676.626441354
2,4, 1, 4, 0, 2, 0.00,60.00,Wednesday
572,18.58316668711815
612,18.00030548913203
652,17.99959961579916
2,4, 1, 4, 0, 3, 0.00,60.00,Wednesday
8,-33.6500432296014
10,8894933.274884766
2,4, 1, 4, 0, 3, 0.00,60.00,Wednesday
572,18.28756943626319
612,17.9994329495439
652,17.998847511015705
2,4, 1, 4, 0, 4, 0.00,60.00,Wednesday
8,-33.461433581224238
10,9863369.047475933
2,4, 1, 4, 0, 4, 0.00,60.00,Wednesday
572,18.107462899651517
612,17.99930745734796
652,18.000368144884129
2,4, 1, 4, 0, 5, 0.00,60.00,Wednesday
8,-33.264864630121959
10,8892406.70785421
2,4, 1, 4, 0, 5, 0.00,60.00,Wednesday
572,17.999979235164174
612,18.00019415697803
652,17.998718758566313
2,4, 1, 4, 0, 6, 0.00,60.00,Wednesday
8,-32.871803246884798
10,8896624.528538883
2,4, 1, 4, 0, 6, 0.00,60.00,Wednesday
572,17.999937273465755
612,18.00007079609785
652,18.000293896651564
2,4, 1, 4, 0, 7, 0.00,60.00,Wednesday
8,-31.880285874825384
10,88348333.53052698
2,4, 1, 4, 0, 7, 0.00,60.00,Wednesday
572,20.185799405340654
612,19.922591455542404
652,20.096345237496505
2,4, 1, 4, 0, 8, 0.00,60.00,Wednesday
8,-31.590937762795915
10,21547448.32688293
2,4, 1, 4, 0, 8, 0.00,60.00,Wednesday
572,21.865522765751128
612,21.669575089423988
652,21.95656915324746
2,4, 1, 4, 0, 9, 0.00,60.00,Wednesday
8,-30.997451085627046
10,90189898.19347564
2,4, 1, 4, 0, 9, 0.00,60.00,Wednesday
572,22.091926352035168
612,22.074371622090945
652,22.146460833084619
2,4, 1, 4, 0,10, 0.00,60.00,Wednesday
8,-30.311619723681774
10,94489116.10525044
2,4, 1, 4, 0,10, 0.00,60.00,Wednesday
572,22.129181921765949
612,22.12848957230369
652,22.19488823830931
2,4, 1, 4, 0,11, 0.00,60.00,Wednesday
8,-29.816333481026786
10,103537744.17123762
2,4, 1, 4, 0,11, 0.00,60.00,Wednesday
572,22.135079684900025
612,22.13140364108792
652,22.204495649533013
2,4, 1, 4, 0,12, 0.00,60.00,Wednesday
8,-29.425007036409679
10,103593060.5175784
2,4, 1, 4, 0,12, 0.00,60.00,Wednesday
572,22.13866857576218
612,22.13121305330298
652,22.209131400939776
2,4, 1, 4, 0,13, 0.00,60.00,Wednesday
8,-29.131842761143238
10,103594407.23742329
2,4, 1, 4, 0,13, 0.00,60.00,Wednesday
572,22.142305388688628
612,22.132913494235777
652,22.211202423589485
2,4, 1, 4, 0,14, 0.00,60.00,Wednesday
8,-29.125418039497366
10,103593488.41843482
2,4, 1, 4, 0,14, 0.00,60.00,Wednesday
572,22.144185652213119
612,22.133453871240957
652,22.213777498114664
2,4, 1, 4, 0,15, 0.00,60.00,Wednesday
8,-28.643562918603199
10,103593448.59448722
2,4, 1, 4, 0,15, 0.00,60.00,Wednesday
572,22.151016854134679
612,22.134309232228703
652,22.222878040753057
2,4, 1, 4, 0,16, 0.00,60.00,Wednesday
8,-28.643701061213343
10,103590489.61805846
2,4, 1, 4, 0,16, 0.00,60.00,Wednesday
572,22.149887850035396
612,22.132637006625733
652,22.216373173465379
2,4, 1, 4, 0,17, 0.00,60.00,Wednesday
8,-29.438377404319007
10,100282740.17258196
2,4, 1, 4, 0,17, 0.00,60.00,Wednesday
572,22.15080707929625
612,22.132274419408188
652,22.213352860901645
2,4, 1, 4, 0,18, 0.00,60.00,Wednesday
8,-31.009370779721217
10,91623725.7521297
2,4, 1, 4, 0,18, 0.00,60.00,Wednesday
572,22.152061003582156
612,22.132185730933565
652,22.214949328182127
2,4, 1, 4, 0,19, 0.00,60.00,Wednesday
8,-31.004193821119356
10,68438964.98553527
2,4, 1, 4, 0,19, 0.00,60.00,Wednesday
572,22.152628558452038
612,22.13131314774848
652,22.21308610005326
2,4, 1, 4, 0,20, 0.00,60.00,Wednesday
8,-30.998950004859926
10,24225165.407178198
2,4, 1, 4, 0,20, 0.00,60.00,Wednesday
572,21.999806869843917
612,21.999665434815169
652,22.001294067777118
2,4, 1, 4, 0,21, 0.00,60.00,Wednesday
8,-30.12938540498228
10,24215065.643981227
2,4, 1, 4, 0,21, 0.00,60.00,Wednesday
572,21.999915155017186
612,22.00064081057922
652,21.99986080174281
2,4, 1, 4, 0,22, 0.00,60.00,Wednesday
8,-29.34157708915702
10,11252308.92516947
2,4, 1, 4, 0,22, 0.00,60.00,Wednesday
572,20.783291761630396
612,20.547617158884657
652,19.296670818166935
2,4, 1, 4, 0,23, 0.00,60.00,Wednesday
8,-28.840311874198059
10,11436655.013410045
2,4, 1, 4, 0,23, 0.00,60.00,Wednesday
572,20.148690980380967
612,19.262531770080245
652,18.103853309183394
2,4, 1, 4, 0,24, 0.00,60.00,Wednesday
8,-28.066580121254466
10,8892033.851659032
2,4, 1, 4, 0,24, 0.00,60.00,Wednesday
572,19.489436615175145
612,18.252250265952044
652,17.999852489002686
3,4, 1, 4, 0,Wednesday
573,86.44726294467273,74.95936638290323, 9,30,100.0, 1,60
613,10.151615618691308,8.450798801233047, 9,60,12.67588404408732,24,36
653,26.241794174806505,19.836242416008635, 9,60,38.537331682025648, 1,30
2,5, 1, 5, 0, 1, 0.00,60.00,Thursday
8,-27.36961472078034
10,8896258.199659111
2,5, 1, 5, 0, 1, 0.00,60.00,Thursday
572,18.99153185387034
612,18.00017797573681
652,17.9997874354265
2,5, 1, 5, 0, 2, 0.00,60.00,Thursday
8,-26.485080463628035
10,9855025.04314348
2,5, 1, 5, 0, 2, 0.00,60.00,Thursday
572,18.627779052389465
612,17.999916518832845
652,18.00057969845013
2,5, 1, 5, 0, 3, 0.00,60.00,Thursday
8,-26.388017122478975
10,8896276.57104532
2,5, 1, 5, 0, 3, 0.00,60.00,Thursday
572,18.140568643672255
612,17.99971666256611
652,18.00051942363219
2,5, 1, 5, 0, 4, 0.00,60.00,Thursday
8,-25.61913690711528
10,9862815.972576036
2,5, 1, 5, 0, 4, 0.00,60.00,Thursday
572,17.999935928240704
612,17.999208891584457
652,17.99928652923717
2,5, 1, 5, 0, 5, 0.00,60.00,Thursday
8,-25.32800910892651
10,8892392.578194684
2,5, 1, 5, 0, 5, 0.00,60.00,Thursday
572,18.000107383608783
612,17.998961507710609
652,17.999375669578595
2,5, 1, 5, 0, 6, 0.00,60.00,Thursday
8,-24.445919419032138
10,8896609.071020842
2,5, 1, 5, 0, 6, 0.00,60.00,Thursday
572,18.000094822108058
612,18.000805057113948
652,17.998073881332684
2,5, 1, 5, 0, 7, 0.00,60.00,Thursday
8,-23.06866531284766
10,88289196.37128598
2,5, 1, 5, 0, 7, 0.00,60.00,Thursday
572,20.17634028207667
612,19.92563248681609
652,20.09847203574978
2,5, 1, 5, 0, 8, 0.00,60.00,Thursday
8,-22.114550743876195
10,21547538.00718266
2,5, 1, 5, 0, 8, 0.00,60.00,Thursday
572,21.868013880076484
612,21.68431358557241
652,21.96886471817971
2,5, 1, 5, 0, 9, 0.00,60.00,Thursday
8,-21.825240311425458
10,90159715.81461054
2,5, 1, 5, 0, 9, 0.00,60.00,Thursday
572,22.09158653340352
612,22.075814961291216
652,22.147429213992198
2,5, 1, 5, 0,10, 0.00,60.00,Thursday
8,-21.440119446527619
10,94473851.18972531
2,5, 1, 5, 0,10, 0.00,60.00,Thursday
572,22.13136115009303
612,22.130838365401027
652,22.20039959737727
2,5, 1, 5, 0,11, 0.00,60.00,Thursday
8,-21.233996586633258
10,103517204.91812459
2,5, 1, 5, 0,11, 0.00,60.00,Thursday
572,22.13684964276576
612,22.132272294757386
652,22.209206519157886
2,5, 1, 5, 0,12, 0.00,60.00,Thursday
8,-20.848898122268304
10,103576246.67225299
2,5, 1, 5, 0,12, 0.00,60.00,Thursday
572,22.140077459137904
612,22.13358011981601
652,22.214490754748416
2,5, 1, 5, 0,13, 0.00,60.00,Thursday
8,-20.3533685845403
10,103575970.54955435
2,5, 1, 5, 0,13, 0.00,60.00,Thursday
572,22.14367425681077
612,22.13474149899099
652,22.219024562613794
2,5, 1, 5, 0,14, 0.00,60.00,Thursday
8,-19.953391845214726
10,103575312.05561243
2,5, 1, 5, 0,14, 0.00,60.00,Thursday
572,22.144953060616094
612,22.13643641201381
652,22.219093276478199
2,5, 1, 5, 0,15, 0.00,60.00,Thursday
8,-19.568531638177004
10,103575021.61350756
2,5, 1, 5, 0,15, 0.00,60.00,Thursday
572,22.147309866466207
612,22.134886005419906
652,22.2190991554577
2,5, 1, 5, 0,16, 0.00,60.00,Thursday
8,-19.087938486685354
10,103579507.32778009
2,5, 1, 5, 0,16, 0.00,60.00,Thursday
572,22.151411259902706
612,22.135661183067478
652,22.224330014891839
2,5, 1, 5, 0,17, 0.00,60.00,Thursday
8,-18.78305699981414
10,100263627.93489318
2,5, 1, 5, 0,17, 0.00,60.00,Thursday
572,22.152595050243418
612,22.135319519030106
652,22.22124669142713
2,5, 1, 5, 0,18, 0.00,60.00,Thursday
8,-18.415877361004708
10,91605060.0501057
2,5, 1, 5, 0,18, 0.00,60.00,Thursday
572,22.154089230017193
612,22.135565976261945
652,22.221188177504648
2,5, 1, 5, 0,19, 0.00,60.00,Thursday
8,-18.12817981785908
10,68420622.29954368
2,5, 1, 5, 0,19, 0.00,60.00,Thursday
572,22.155920975320535
612,22.13499763760927
652,22.221884608464675
2,5, 1, 5, 0,20, 0.00,60.00,Thursday
8,-17.918476990084625
10,24225158.942531699
2,5, 1, 5, 0,20, 0.00,60.00,Thursday
572,21.99981063968512
612,21.99984980730172
652,22.000167857992513
2,5, 1, 5, 0,21, 0.00,60.00,Thursday
8,-17.822423547959326
10,24215065.24419743
2,5, 1, 5, 0,21, 0.00,60.00,Thursday
572,21.999167662107188
612,21.99923186654544
652,22.001634863302138
2,5, 1, 5, 0,22, 0.00,60.00,Thursday
8,-17.91803209941379
10,11256103.67889017
2,5, 1, 5, 0,22, 0.00,60.00,Thursday
572,21.019322723754248
612,20.929350748495979
652,19.95148291810985
2,5, 1, 5, 0,23, 0.00,60.00,Thursday
8,-17.93578639210313
10,10442976.868958053
2,5, 1, 5, 0,23, 0.00,60.00,Thursday
572,20.31908757112668
612,19.342719024933058
652,18.279551336377794
2,5, 1, 5, 0,24, 0.00,60.00,Thursday
8,-17.83982154586153
10,8890553.710038243
2,5, 1, 5, 0,24, 0.00,60.00,Thursday
572,19.910836459612019
612,18.494094989133254
652,17.999934802844384
3,5, 1, 5, 0,Thursday
573,81.58612924779567,71.09134524479446, 9,60,99.32898295484149, 3,30
613,10.437079326842794,8.702832080390746, 9,60,13.024211325209459,24,60
653,18.270090523937684,10.795205855304833, 8,59,27.202376693220644, 1,20
2,6, 1, 6, 0, 1, 0.00,60.00,Friday
8,-17.74375322407815
10,8897243.803509536
2,6, 1, 6, 0, 1, 0.00,60.00,Friday
572,19.59370816321075
612,18.09139908455984
652,17.999988487466469
2,6, 1, 6, 0, 2, 0.00,60.00,Friday
8,-17.36084071889782
10,9854889.359663083
2,6, 1, 6, 0, 2, 0.00,60.00,Friday
572,19.08953578256067
612,18.000126659452826
652,18.000296596376548
2,6, 1, 6, 0, 3, 0.00,60.00,Friday
8,-17.34174215313495
10,8894872.758687713
2,6, 1, 6, 0, 3, 0.00,60.00,Friday
572,18.808371884093945
612,18.000277048879224
652,17.999139541083918
2,6, 1, 6, 0, 4, 0.00,60.00,Friday
8,-17.05439812820792
10,9863521.200725237
2,6, 1, 6, 0, 4, 0.00,60.00,Friday
572,18.619788925394
612,18.00040225499958
652,18.00009420741781
2,6, 1, 6, 0, 5, 0.00,60.00,Friday
8,-17.054117499005927
10,8892355.399480477
2,6, 1, 6, 0, 5, 0.00,60.00,Friday
572,18.468050938915615
612,18.000148604109858
652,18.00039148443608
2,6, 1, 6, 0, 6, 0.00,60.00,Friday
8,-18.717416666058744
10,8896553.624932394
2,6, 1, 6, 0, 6, 0.00,60.00,Friday
572,18.384909350721118
612,17.99972905966252
652,18.000912425631545
2,6, 1, 6, 0, 7, 0.00,60.00,Friday
8,-20.7771482175095
10,87208564.85868025
2,6, 1, 6, 0, 7, 0.00,60.00,Friday
572,20.214492357005569
612,19.935557699404535
652,20.099986418526489
2,6, 1, 6, 0, 8, 0.00,60.00,Friday
8,-21.558864311694799
10,21547858.350356278
2,6, 1, 6, 0, 8, 0.00,60.00,Friday
572,21.895529236127389
612,21.72288928418133
652,22.000294853644716
2,6, 1, 6, 0, 9, 0.00,60.00,Friday
8,-22.436587333184016
10,90136114.30888242
2,6, 1, 6, 0, 9, 0.00,60.00,Friday
572,22.093502171988
612,22.075967415941407
652,22.148960002413117
2,6, 1, 6, 0,10, 0.00,60.00,Friday
8,-22.90615707671612
10,94493914.75158298
2,6, 1, 6, 0,10, 0.00,60.00,Friday
572,22.13298083535612
612,22.13053387479589
652,22.204233861660965
2,6, 1, 6, 0,11, 0.00,60.00,Friday
8,-23.21805683998013
10,103528712.16171421
2,6, 1, 6, 0,11, 0.00,60.00,Friday
572,22.13845641029565
612,22.134116824510316
652,22.21284056662321
2,6, 1, 6, 0,12, 0.00,60.00,Friday
8,-23.50698656256211
10,103588761.67671074
2,6, 1, 6, 0,12, 0.00,60.00,Friday
572,22.142590471613184
612,22.133727350671284
652,22.218789384022906
2,6, 1, 6, 0,13, 0.00,60.00,Friday
8,-23.51793649820284
10,103591253.66075327
2,6, 1, 6, 0,13, 0.00,60.00,Friday
572,22.144969166919709
612,22.13584055938793
652,22.219796106682958
2,6, 1, 6, 0,14, 0.00,60.00,Friday
8,-23.89262977426356
10,103592075.76089514
2,6, 1, 6, 0,14, 0.00,60.00,Friday
572,22.14814015426409
612,22.135084225652038
652,22.22281142689154
2,6, 1, 6, 0,15, 0.00,60.00,Friday
8,-24.385479206154768
10,103594923.58057112
2,6, 1, 6, 0,15, 0.00,60.00,Friday
572,22.149551071333489
612,22.135532395916468
652,22.222742585304276
2,6, 1, 6, 0,16, 0.00,60.00,Friday
8,-24.868514989335666
10,103598440.45279524
2,6, 1, 6, 0,16, 0.00,60.00,Friday
572,22.152423689560796
612,22.13456487588924
652,22.221193673955765
2,6, 1, 6, 0,17, 0.00,60.00,Friday
8,-24.685023326376059
10,100289527.1060081
2,6, 1, 6, 0,17, 0.00,60.00,Friday
572,22.15402028406268
612,22.133527760474533
652,22.221010248007909
2,6, 1, 6, 0,18, 0.00,60.00,Friday
8,-24.47175673434513
10,91631991.02897068
2,6, 1, 6, 0,18, 0.00,60.00,Friday
572,22.155770173385667
612,22.134879624265854
652,22.21983738141972
2,6, 1, 6, 0,19, 0.00,60.00,Friday
8,-24.278506236093639
10,68448196.03534907
2,6, 1, 6, 0,19, 0.00,60.00,Friday
572,22.156978144516825
612,22.134830852949969
652,22.218700191625979
2,6, 1, 6, 0,20, 0.00,60.00,Friday
8,-24.08525133948738
10,24225159.212384236
2,6, 1, 6, 0,20, 0.00,60.00,Friday
572,21.99939537168257
612,21.99944007854865
652,22.00071436559786
2,6, 1, 6, 0,21, 0.00,60.00,Friday
8,-23.806445764144333
10,24215065.96071029
2,6, 1, 6, 0,21, 0.00,60.00,Friday
572,22.000134466854417
612,21.99951612189736
652,21.999779576935994
2,6, 1, 6, 0,22, 0.00,60.00,Friday
8,-23.60279452174943
10,11252055.370878429
2,6, 1, 6, 0,22, 0.00,60.00,Friday
572,21.132176889333278
612,21.034569601797878
652,20.172284612727766
2,6, 1, 6, 0,23, 0.00,60.00,Friday
8,-23.999399389834737
10,8475181.68907091
2,6, 1, 6, 0,23, 0.00,60.00,Friday
572,20.618686113902993
612,19.642654883048576
652,18.70900839349139
2,6, 1, 6, 0,24, 0.00,60.00,Friday
8,-24.085497125368506
10,8191891.414065969
2,6, 1, 6, 0,24, 0.00,60.00,Friday
572,20.18513629497225
612,18.84034201466472
652,18.055233515511078
3,6, 1, 6, 0,Friday
573,86.25683211386748,74.79081267971168, 9,30,100.0,24,36
613,11.959148518100412,9.960386495392234, 9,30,15.778174826148226,24,60
653,24.61894108497278,15.365313258693428, 8, 8,41.60321883951191,24,60
2,7, 1, 7, 0, 1, 0.00,60.00,Saturday
8,-23.785217700283217
10,8891387.395831408
2,7, 1, 7, 0, 1, 0.00,60.00,Saturday
572,19.83304211394308
612,18.195346205209299
652,18.00003689119026
2,7, 1, 7, 0, 2, 0.00,60.00,Saturday
8,-23.50661751456506
10,9855635.402279973
2,7, 1, 7, 0, 2, 0.00,60.00,Saturday
572,19.523664335342497
612,18.00015412519216
652,18.000124684721209
2,7, 1, 7, 0, 3, 0.00,60.00,Saturday
8,-23.31391910897965
10,8893576.04977508
2,7, 1, 7, 0, 3, 0.00,60.00,Saturday
572,19.048866485905159
612,17.999893108074365
652,17.999678597657089
2,7, 1, 7, 0, 4, 0.00,60.00,Saturday