Program Version,EnergyPlus, Version 8.9.0-eba93e8e1b, YMD=2018.10.31 18:42
1,5,Environment Title[],Latitude[deg],Longitude[deg],Time Zone[],Elevation[m]
2,8,Day of Simulation[],Month[],Day of Month[],DST Indicator[1=yes 0=no],Hour[],StartMinute[],EndMinute[],DayType
3,5,Cumulative Day of Simulation[],Month[],Day of Month[],DST Indicator[1=yes 0=no],DayType  ! When Daily Report Variables Requested
4,2,Cumulative Days of Simulation[],Month[]  ! When Monthly Report Variables Requested
5,1,Cumulative Days of Simulation[] ! When Run Period Report Variables Requested
6,1,Calendar Year of Simulation[] ! When Annual Report Variables Requested
7,9,Environment,Site Outdoor Air Drybulb Temperature [C] !Monthly [Value,Min,Day,Hour,Minute,Max,Day,Hour,Minute]
8,1,Environment,Site Outdoor Air Wetbulb Temperature [C] !TimeStep
555,1,SP-ATTIC SYS-0 FLR-2 SCH-- UNDEFINED - HPLCMT-CORE ZN,Zone Air Temperature [C] !Hourly
556,7,SP-ATTIC SYS-0 FLR-2 SCH-- UNDEFINED - HPLCMT-CORE ZN,Zone Air Relative Humidity [%] !Daily [Value,Min,Hour,Minute,Max,Hour,Minute]
595,1,SP-CORE_ZN SYS-3 FLR-1 SCH-A HPLCMT-CORE ZN,Zone Air Temperature [C] !Hourly
596,7,SP-CORE_ZN SYS-3 FLR-1 SCH-A HPLCMT-CORE ZN,Zone Air Relative Humidity [%] !Daily [Value,Min,Hour,Minute,Max,Hour,Minute]
635,1,SP-PERIMETER_ZN_1 SYS-3 FLR-1 SCH-A HPLCMT-SOUTH ZN,Zone Air Temperature [C] !Hourly
636,7,SP-PERIMETER_ZN_1 SYS-3 FLR-1 SCH-A HPLCMT-SOUTH ZN,Zone Air Relative Humidity [%] !Daily [Value,Min,Hour,Minute,Max,Hour,Minute]
675,1,SP-PERIMETER_ZN_2 SYS-3 FLR-1 SCH-A HPLCMT-EAST ZN,Zone Air Temperature [C] !Hourly
676,7,SP-PERIMETER_ZN_2 SYS-3 FLR-1 SCH-A HPLCMT-EAST ZN,Zone Air Relative Humidity [%] !Daily [Value,Min,Hour,Minute,Max,Hour,Minute]
715,1,SP-PERIMETER_ZN_3 SYS-3 FLR-1 SCH-A HPLCMT-NORTH ZN,Zone Air Temperature [C] !Hourly
716,7,SP-PERIMETER_ZN_3 SYS-3 FLR-1 SCH-A HPLCMT-NORTH ZN,Zone Air Relative Humidity [%] !Daily [Value,Min,Hour,Minute,Max,Hour,Minute]
755,1,SP-PERIMETER_ZN_4 SYS-3 FLR-1 SCH-A HPLCMT-WEST ZN,Zone Air Temperature [C] !Hourly
756,7,SP-PERIMETER_ZN_4 SYS-3 FLR-1 SCH-A HPLCMT-WEST ZN,Zone Air Relative Humidity [%] !Daily [Value,Min,Hour,Minute,Max,Hour,Minute]
10,1,Electricity:Facility [J] !TimeStep
321,1,Gas:Facility [J] !TimeStep
End of Data Dictionary
1,EDMONTON INTL AP ANN CLG .4% CONDNS DB=>MWB,  53.31,-113.58,  -7.00, 723.30
2,1, 7,21, 0, 1, 0.00,10.00,SummerDesignDay
8,14.408921504545056
10,1996374.6472745394
321,12000.0
2,1, 7,21, 0, 1,10.00,20.00,SummerDesignDay
8,14.363956333840566
10,1996374.6472745394
321,12000.0
2,1, 7,21, 0, 1,20.00,30.00,SummerDesignDay
8,14.318916788014189
10,1996374.6472745394
321,12000.0
2,1, 7,21, 0, 1,30.00,40.00,SummerDesignDay
8,14.273802755837496
10,1996374.6472745394
321,12000.0
2,1, 7,21, 0, 1,40.00,50.00,SummerDesignDay
8,14.228614054951587
10,1996374.6472745394
321,12000.0
2,1, 7,21, 0, 1,50.00,60.00,SummerDesignDay
8,14.183350324714694
10,1996374.6472745394
321,556471.0410336427
2,1, 7,21, 0, 1, 0.00,60.00,SummerDesignDay
555,24.93786349610237
595,25.341845087422909
635,25.849109305358554
675,26.444580789807998
715,25.463043433662553
755,27.140403022080468
2,1, 7,21, 0, 2, 0.00,10.00,SummerDesignDay
8,14.153134718658599
10,1996374.6472745394
321,12000.0
2,1, 7,21, 0, 2,10.00,20.00,SummerDesignDay
8,14.122885717757236
10,1996374.6472745394
321,12000.0
2,1, 7,21, 0, 2,20.00,30.00,SummerDesignDay
8,14.092597500544113
10,1996374.6472745394
321,12000.0
2,1, 7,21, 0, 2,30.00,40.00,SummerDesignDay
8,14.062281266428409
10,1996374.6472745394
321,12000.0
2,1, 7,21, 0, 2,40.00,50.00,SummerDesignDay
8,14.031931527690617
10,1996374.6472745394
321,562018.9981318876
2,1, 7,21, 0, 2,50.00,60.00,SummerDesignDay
8,14.001542516648158
10,1996374.6472745394
321,12000.0
2,1, 7,21, 0, 2, 0.00,60.00,SummerDesignDay
555,24.756393696029986
595,25.14283813854824
635,25.608721561650879
675,26.245472868077888
715,25.23305499514467
755,26.91688346789091
2,1, 7,21, 0, 3, 0.00,10.00,SummerDesignDay
8,13.978731556127439
10,1996374.6472745394
321,12000.0
2,1, 7,21, 0, 3,10.00,20.00,SummerDesignDay
8,13.95590132758737
10,1996374.6472745394
321,12000.0
2,1, 7,21, 0, 3,20.00,30.00,SummerDesignDay
8,13.93305210332818
10,1996374.6472745394
321,12000.0
2,1, 7,21, 0, 3,30.00,40.00,SummerDesignDay
8,13.910183929510893
10,1996374.6472745394
321,12000.0
2,1, 7,21, 0, 3,40.00,50.00,SummerDesignDay
8,13.887299512014089
10,1996374.6472745394
321,555364.4707853292
2,1, 7,21, 0, 3,50.00,60.00,SummerDesignDay
8,13.864393099219983
10,1996374.6472745394
321,12000.0
2,1, 7,21, 0, 3, 0.00,60.00,SummerDesignDay
555,24.590160155889888
595,24.968729059521836
635,25.395930845436877
675,26.056399172596089
715,25.034310388801356
755,26.702607296172329
2,1, 7,21, 0, 4, 0.00,10.00,SummerDesignDay
8,13.841467737397938
10,1996374.6472745394
321,12000.0
2,1, 7,21, 0, 4,10.00,20.00,SummerDesignDay
8,13.818523144723767
10,1996374.6472745394
321,12000.0
2,1, 7,21, 0, 4,20.00,30.00,SummerDesignDay
8,13.795559255229476
10,1996374.6472745394
321,12000.0
2,1, 7,21, 0, 4,30.00,40.00,SummerDesignDay
8,13.772576325114985
10,1996374.6472745394
321,561145.2959199207
2,1, 7,21, 0, 4,40.00,50.00,SummerDesignDay
8,13.749574066201042
10,1996374.6472745394
321,12000.0
2,1, 7,21, 0, 4,50.00,60.00,SummerDesignDay
8,13.726552713863889
10,1996374.6472745394
321,12000.0
2,1, 7,21, 0, 4, 0.00,60.00,SummerDesignDay
555,24.430023831716914
595,24.806138626896997
635,25.199115394735317
675,25.874492482254554
715,24.850087527077667
755,26.497137431960508
2,1, 7,21, 0, 5, 0.00,10.00,SummerDesignDay
8,13.711195251010303
10,1996374.6472745394
321,12000.0
2,1, 7,21, 0, 5,10.00,20.00,SummerDesignDay
8,13.695826455893389
10,1996374.6472745394
321,12000.0
2,1, 7,21, 0, 5,20.00,30.00,SummerDesignDay
8,13.680451907720404
10,1996374.6472745394
321,12000.0
2,1, 7,21, 0, 5,30.00,40.00,SummerDesignDay
8,13.665068584585312
10,1996374.6472745394
321,553576.39592133
2,1, 7,21, 0, 5,40.00,50.00,SummerDesignDay
8,13.649674187846486
10,1996374.6472745394
321,12000.0
2,1, 7,21, 0, 5,50.00,60.00,SummerDesignDay
8,13.634273810837755
10,1996374.6472745394
321,12000.0
2,1, 7,21, 0, 5, 0.00,60.00,SummerDesignDay
555,24.290810444614466
595,24.651594681737398
635,25.016970354284316
675,25.749894476813343
715,24.70452824867203
755,26.305021493038166
2,1, 7,21, 0, 6, 0.00,10.00,SummerDesignDay
8,13.649674187846486
10,1996374.6472745394
321,12000.0
2,1, 7,21, 0, 6,10.00,20.00,SummerDesignDay
8,13.665068584585312
10,2003102.525180323
321,12000.0
2,1, 7,21, 0, 6,20.00,30.00,SummerDesignDay
8,13.680451907720404
10,2003729.5689088663
321,559935.4057901404
2,1, 7,21, 0, 6,30.00,40.00,SummerDesignDay
8,13.695826455893389
10,2004984.9386387673
321,12000.0
2,1, 7,21, 0, 6,40.00,50.00,SummerDesignDay
8,13.711195251010303
10,2006329.4243581007
321,12000.0
2,1, 7,21, 0, 6,50.00,60.00,SummerDesignDay
8,13.726552713863889
10,2007304.5535381819
321,12000.0
2,1, 7,21, 0, 6, 0.00,60.00,SummerDesignDay
555,24.400756516792727
595,24.61122292766341
635,24.981126430621488
675,26.42965821914078
715,24.92832331578511
755,26.246881558927787
2,1, 7,21, 0, 7, 0.00,10.00,SummerDesignDay
8,13.78024039805344
10,3172916.507366807
321,99048.78126447517
2,1, 7,21, 0, 7,10.00,20.00,SummerDesignDay
8,13.833820754314865
10,2809387.988519343
321,202301.35250157934
2,1, 7,21, 0, 7,20.00,30.00,SummerDesignDay
8,13.887299512014089
10,2897882.564251231
321,391454.56156643069
2,1, 7,21, 0, 7,30.00,40.00,SummerDesignDay
8,13.940674335544428
10,2778643.2997940469
321,12000.0
2,1, 7,21, 0, 7,40.00,50.00,SummerDesignDay
8,13.993942850183995
10,2761232.713278039
321,12000.0
2,1, 7,21, 0, 7,50.00,60.00,SummerDesignDay
8,14.047107922751703
10,2763371.868847016
321,12000.0
2,1, 7,21, 0, 7, 0.00,60.00,SummerDesignDay
555,24.71923583015173
595,24.007151341070043
635,24.004829544859619
675,24.09329732785665
715,24.017173397833504
755,24.04479038145853
2,1, 7,21, 0, 8, 0.00,10.00,SummerDesignDay
8,14.175801016944173
10,3784896.987337197
321,556901.4091619292
2,1, 7,21, 0, 8,10.00,20.00,SummerDesignDay
8,14.30389081517423
10,3817404.8584510057
321,51331.4200039203
2,1, 7,21, 0, 8,20.00,30.00,SummerDesignDay
8,14.431376572089834
10,3842963.557495052
321,12000.0
2,1, 7,21, 0, 8,30.00,40.00,SummerDesignDay
8,14.558273322375906
10,3869093.8444485228
321,587732.0145915784
2,1, 7,21, 0, 8,40.00,50.00,SummerDesignDay
8,14.684579977889073
10,3891622.075994916
321,12000.0
2,1, 7,21, 0, 8,50.00,60.00,SummerDesignDay
8,14.810295691904573
10,3910884.247717041
321,12000.0
2,1, 7,21, 0, 8, 0.00,60.00,SummerDesignDay
555,25.245471486549908
595,23.999867889785233
635,23.999929944028979
675,23.99939249843409
715,23.99990030900021
755,23.999974117603484
2,1, 7,21, 0, 9, 0.00,10.00,SummerDesignDay
8,14.950121243610284
10,7814564.498054144
321,929651.056213268
2,1, 7,21, 0, 9,10.00,20.00,SummerDesignDay
8,15.089221146567488
10,7908949.062386718
321,1000058.0405414804
2,1, 7,21, 0, 9,20.00,30.00,SummerDesignDay
8,15.227606891008949
10,7955997.42513454
321,1000192.5004970152
2,1, 7,21, 0, 9,30.00,40.00,SummerDesignDay
8,15.365289776245018
10,7999658.220281563
321,1000375.2701527602
2,1, 7,21, 0, 9,40.00,50.00,SummerDesignDay
8,15.502264377040474
10,8038573.04504655
321,1000558.616671296
2,1, 7,21, 0, 9,50.00,60.00,SummerDesignDay
8,15.638542321600605
10,8073969.323900345
321,1000742.6735547427
2,1, 7,21, 0, 9, 0.00,60.00,SummerDesignDay
555,25.907275337012228
595,23.99906336516653
635,23.999433724678004
675,23.998879495000453
715,23.999305014691158
755,23.999663920615217
2,1, 7,21, 0,10, 0.00,10.00,SummerDesignDay
8,15.759892319294759
10,8823255.059835414
321,1000927.431600602
2,1, 7,21, 0,10,10.00,20.00,SummerDesignDay
8,15.880693229880889
10,8864343.317489496
321,917948.9586371869
2,1, 7,21, 0,10,20.00,30.00,SummerDesignDay
8,16.000943860531654
10,8899874.667635883
321,897928.447694748
2,1, 7,21, 0,10,30.00,40.00,SummerDesignDay
8,16.120658125095784
10,8933093.262016133
321,897605.5883592721
2,1, 7,21, 0,10,40.00,50.00,SummerDesignDay
8,16.23983443184199
10,8961440.015038729
321,897273.840733031
2,1, 7,21, 0,10,50.00,60.00,SummerDesignDay
8,16.358472940285755
10,8984367.418368163
321,896937.5587003215
2,1, 7,21, 0,10, 0.00,60.00,SummerDesignDay
555,26.652988932954899
595,23.99840939823216
635,23.998902568991026
675,23.99842846970736
715,23.998783794097947
755,23.99937909504689
2,1, 7,21, 0,11, 0.00,10.00,SummerDesignDay
8,16.462716623198927
10,9000816.178100285
321,1840780.0225992939
2,1, 7,21, 0,11,10.00,20.00,SummerDesignDay
8,16.566550955696245
10,9037075.267940406
321,1325924.8007071138
2,1, 7,21, 0,11,20.00,30.00,SummerDesignDay
8,16.66997846079155
10,9051818.151626938
321,1840780.0225992939
2,1, 7,21, 0,11,30.00,40.00,SummerDesignDay
8,16.7730012676781
10,9082658.405795414
321,1840780.0225992939
2,1, 7,21, 0,11,40.00,50.00,SummerDesignDay
8,16.875622130186476
10,9117019.169695095
321,1325823.1976521617
2,1, 7,21, 0,11,50.00,60.00,SummerDesignDay
8,16.97784413118777
10,9149090.67935214
321,1840780.0225992939
2,1, 7,21, 0,11, 0.00,60.00,SummerDesignDay
555,27.339384462642188
595,23.99809190959407
635,23.998327488145426
675,23.99858429333487
715,23.998521118846054
755,23.999198477327587
2,1, 7,21, 0,12, 0.00,10.00,SummerDesignDay
8,17.045774844894369
10,9173110.474274073
321,1840780.0225992939
2,1, 7,21, 0,12,10.00,20.00,SummerDesignDay
8,17.11352484602356
10,9196785.536811728
321,1325754.6197246998
2,1, 7,21, 0,12,20.00,30.00,SummerDesignDay
8,17.181099778884684
10,9217991.93745182
321,1840780.0225992939
2,1, 7,21, 0,12,30.00,40.00,SummerDesignDay
8,17.248505827268955
10,9239659.950805178
321,1840780.0225992939
2,1, 7,21, 0,12,40.00,50.00,SummerDesignDay
8,17.315733840182703
10,9262608.829023105
321,1325685.0580286047
2,1, 7,21, 0,12,50.00,60.00,SummerDesignDay
8,17.382788731949537
10,9284097.009492243
321,1840780.0225992939
2,1, 7,21, 0,12, 0.00,60.00,SummerDesignDay
555,27.889990218448209
595,23.997793534586795
635,23.997754537713516
675,23.998806855550297
715,23.998315247600816
755,23.99906478636218
2,1, 7,21, 0,13, 0.00,10.00,SummerDesignDay
8,17.4363122345863
10,9237745.053373117
321,1840780.0225992939
2,1, 7,21, 0,13,10.00,20.00,SummerDesignDay
8,17.489726041629873
10,9252786.226049418
321,1325614.561806258
2,1, 7,21, 0,13,20.00,30.00,SummerDesignDay
8,17.543025588328598
10,9265426.736722559
321,1840780.0225992939
2,1, 7,21, 0,13,30.00,40.00,SummerDesignDay
8,17.59622068620083
10,9278282.407025695
321,1840780.0225992939
2,1, 7,21, 0,13,40.00,50.00,SummerDesignDay
8,17.649308254383418
10,9292498.357879229
321,1325543.1827619277
2,1, 7,21, 0,13,50.00,60.00,SummerDesignDay
8,17.70228170270765
10,9306053.237060938
321,1840780.0225992939
2,1, 7,21, 0,13, 0.00,60.00,SummerDesignDay
555,28.283979520215213
595,23.998003986054685
635,23.99796066734564
675,23.99899196740228
715,23.998490504797219
755,23.999177175190906
2,1, 7,21, 0,14, 0.00,10.00,SummerDesignDay
8,17.735339409697159
10,9315958.518752145
321,1840780.0225992939
2,1, 7,21, 0,14,10.00,20.00,SummerDesignDay
8,17.76835485245733
10,9326959.916223258
321,1325470.9750790785
2,1, 7,21, 0,14,20.00,30.00,SummerDesignDay
8,17.80132395083002
10,9337067.986963466
321,1840780.0225992939
2,1, 7,21, 0,14,30.00,40.00,SummerDesignDay
8,17.83425598398755
10,9347556.907335479
321,1840780.0225992939
2,1, 7,21, 0,14,40.00,50.00,SummerDesignDay
8,17.867145969102244
10,9362207.44192958
321,1325397.9952463937
2,1, 7,21, 0,14,50.00,60.00,SummerDesignDay
8,17.89998955880744
10,9380377.808415136
321,1840780.0225992939
2,1, 7,21, 0,14, 0.00,60.00,SummerDesignDay
555,28.534926996902287
595,23.998115330406024
635,23.998250271913759
675,23.999036811790245
715,23.998572889552489
755,23.9992150528909
2,1, 7,21, 0,15, 0.00,10.00,SummerDesignDay
8,17.89998955880744
10,9449186.379294513
321,1840780.0225992939
2,1, 7,21, 0,15,10.00,20.00,SummerDesignDay
8,17.89998955880744
10,9477800.194295815
321,1325324.3018696099
2,1, 7,21, 0,15,20.00,30.00,SummerDesignDay
8,17.89998955880744
10,9508845.181038574
321,1840780.0225992939
2,1, 7,21, 0,15,30.00,40.00,SummerDesignDay
8,17.89998955880744
10,9539370.462268955
321,1840780.0225992939
2,1, 7,21, 0,15,40.00,50.00,SummerDesignDay
8,17.89998955880744
10,9569675.379025042
321,1325249.9554706102
2,1, 7,21, 0,15,50.00,60.00,SummerDesignDay
8,17.89998955880744
10,9598742.988331542
321,1840780.0225992939
2,1, 7,21, 0,15, 0.00,60.00,SummerDesignDay
555,28.630214346324949
595,24.006506211764515
635,23.998133200905988
675,23.998835148098427
715,23.998275241038685
755,23.9987663668196
2,1, 7,21, 0,16, 0.00,10.00,SummerDesignDay
8,17.860568207889693
10,9620931.200321729
321,1840780.0225992939
2,1, 7,21, 0,16,10.00,20.00,SummerDesignDay
8,17.821087195457694
10,9641352.092703943
321,1325175.01827533
2,1, 7,21, 0,16,20.00,30.00,SummerDesignDay
8,17.781546005513165
10,9655549.877360667
321,1840780.0225992939
2,1, 7,21, 0,16,30.00,40.00,SummerDesignDay
8,17.741944344507937
10,9661872.169557212
321,1840780.0225992939
2,1, 7,21, 0,16,40.00,50.00,SummerDesignDay
8,17.70228170270765
10,9660709.166457979
321,1325099.5539921916
2,1, 7,21, 0,16,50.00,60.00,SummerDesignDay
8,17.66255919312062
10,9654235.881241437
321,1840780.0225992939
2,1, 7,21, 0,16, 0.00,60.00,SummerDesignDay
555,28.552556421570018
595,24.0717603788972
635,23.99810390370726
675,23.998727895351256
715,23.99802609409765
755,23.997969024748959
2,1, 7,21, 0,17, 0.00,10.00,SummerDesignDay
8,17.609504062474934
10,9640670.2775322
321,1188650.5223437492
2,1, 7,21, 0,17,10.00,20.00,SummerDesignDay
8,17.55633553044059
10,9619289.7396106
321,1504421.3275255496
2,1, 7,21, 0,17,20.00,30.00,SummerDesignDay
8,17.503058322036386
10,9602030.94297876
321,1534609.622968616
2,1, 7,21, 0,17,30.00,40.00,SummerDesignDay
8,17.44967746622602
10,9583466.651181363
321,1170859.310403111
2,1, 7,21, 0,17,40.00,50.00,SummerDesignDay
8,17.396181268445479
10,9565921.99016631
321,1169896.1994394554
2,1, 7,21, 0,17,50.00,60.00,SummerDesignDay
8,17.34257573518993
10,9549916.332811676
321,1168721.0811307482
2,1, 7,21, 0,17, 0.00,60.00,SummerDesignDay
555,28.30410494395069
595,24.084516251212734
635,23.998291001097539
675,23.99878581792324
715,23.99799563453391
755,23.99773574554378
2,1, 7,21, 0,18, 0.00,10.00,SummerDesignDay
8,17.27541672792129
10,9105731.557374072
321,1014755.9754906849
2,1, 7,21, 0,18,10.00,20.00,SummerDesignDay
8,17.20808504250612
10,9060921.066969786
321,999602.3982321961
2,1, 7,21, 0,18,20.00,30.00,SummerDesignDay
8,17.14057454221269
10,9036478.379823497
321,999813.0626349371
2,1, 7,21, 0,18,30.00,40.00,SummerDesignDay
8,17.072894901477484
10,9009991.823950187
321,999994.6822018735
2,1, 7,21, 0,18,40.00,50.00,SummerDesignDay
8,17.00503937009805
10,8980067.189634704
321,1000176.5139728411
2,1, 7,21, 0,18,50.00,60.00,SummerDesignDay
8,16.937003238056929
10,8951224.06364598
321,1000359.0759076452
2,1, 7,21, 0,18, 0.00,60.00,SummerDesignDay
555,27.909248219839385
595,23.999181021648857
635,23.99862042231591
675,23.999048491711759
715,23.99835977680308
755,23.998147675627846
2,1, 7,21, 0,19, 0.00,10.00,SummerDesignDay
8,16.834621823952899
10,6555402.313387508
321,751007.11194907
2,1, 7,21, 0,19,10.00,20.00,SummerDesignDay
8,16.731840597095546
10,6471686.25941318
321,444921.74490226208
2,1, 7,21, 0,19,20.00,30.00,SummerDesignDay
8,16.628656510094389
10,6418727.119283731
321,351666.7828434323
2,1, 7,21, 0,19,30.00,40.00,SummerDesignDay
8,16.52506631093024
10,6375566.386947485
321,728483.507236706
2,1, 7,21, 0,19,40.00,50.00,SummerDesignDay
8,16.421068679567168
10,6335914.043201765
321,729859.9912104106
2,1, 7,21, 0,19,50.00,60.00,SummerDesignDay
8,16.316660126006189
10,6299134.307332647
321,731702.0353154391
2,1, 7,21, 0,19, 0.00,60.00,SummerDesignDay
555,27.357116146533646
595,23.998863635525855
635,23.99928284485317
675,23.99952277738682
715,23.999150077981214
755,23.998979612479535
2,1, 7,21, 0,20, 0.00,10.00,SummerDesignDay
8,16.23983443184199
10,4509520.229850145
321,12000.0
2,1, 7,21, 0,20,10.00,20.00,SummerDesignDay
8,16.16278109476159
10,4451325.430081787
321,646282.8179125714
2,1, 7,21, 0,20,20.00,30.00,SummerDesignDay
8,16.08550223037326
10,4407061.462084623
321,414460.6595602534
2,1, 7,21, 0,20,30.00,40.00,SummerDesignDay
8,16.00800423259966
10,4362927.420746409
321,294718.2836230762
2,1, 7,21, 0,20,40.00,50.00,SummerDesignDay
8,15.93027362002692
10,4318159.695785391
321,648218.7291601559
2,1, 7,21, 0,20,50.00,60.00,SummerDesignDay
8,15.852315674932763
10,4270776.311946317
321,12000.0
2,1, 7,21, 0,20, 0.00,60.00,SummerDesignDay
555,26.717590262292306
595,23.99953796271596
635,23.99971115885893
675,23.999806067289485
715,23.99959198164056
755,23.999594028837185
2,1, 7,21, 0,21, 0.00,10.00,SummerDesignDay
8,15.788363192404085
10,4221054.612285484
321,645936.3006828242
2,1, 7,21, 0,21,10.00,20.00,SummerDesignDay
8,15.724257172716296
10,4165436.2753281297
321,533776.2217232109
2,1, 7,21, 0,21,20.00,30.00,SummerDesignDay
8,15.659996790990642
10,4103347.918545437
321,161797.63447668404
2,1, 7,21, 0,21,30.00,40.00,SummerDesignDay
8,15.595581535815035
10,4042871.080452154
321,647724.6001862632
2,1, 7,21, 0,21,40.00,50.00,SummerDesignDay
8,15.531010778608508
10,3981960.185815245
321,12000.0
2,1, 7,21, 0,21,50.00,60.00,SummerDesignDay
8,15.466284010175432
10,3936833.0884677974
321,645498.6166066066
2,1, 7,21, 0,21, 0.00,60.00,SummerDesignDay
555,26.108448862378358
595,23.999730394186288
635,23.999838598782437
675,23.99988123239235
715,23.99977610549764
755,23.999838217915877
2,1, 7,21, 0,22, 0.00,10.00,SummerDesignDay
8,15.401400391031143
10,2175680.5213232028
321,627117.9667310934
2,1, 7,21, 0,22,10.00,20.00,SummerDesignDay
8,15.33635955620899
10,2170302.418739653
321,127639.31117327046
2,1, 7,21, 0,22,20.00,30.00,SummerDesignDay
8,15.271160868662271
10,2140736.107046549
321,699300.8271276904
2,1, 7,21, 0,22,30.00,40.00,SummerDesignDay
8,15.205803751049473
10,2147834.3644762046
321,85151.11768240152
2,1, 7,21, 0,22,40.00,50.00,SummerDesignDay
8,15.140287170056565
10,2125049.0414797409
321,591072.4475079938
2,1, 7,21, 0,22,50.00,60.00,SummerDesignDay
8,15.074611000243042
10,2170495.5219196269
321,649659.4977407873
2,1, 7,21, 0,22, 0.00,60.00,SummerDesignDay
555,25.649004700178609
595,25.210641758523424
635,25.584679685788549
675,25.867297628352618
715,25.389968387323653
755,26.387027936789438
2,1, 7,21, 0,23, 0.00,10.00,SummerDesignDay
8,15.023420228078102
10,2143151.9192299025
321,12000.0
2,1, 7,21, 0,23,10.00,20.00,SummerDesignDay
8,14.972132426857695
10,2125049.0414797409
321,12000.0
2,1, 7,21, 0,23,20.00,30.00,SummerDesignDay
8,14.920741525635572
10,2125049.0414797409
321,12000.0
2,1, 7,21, 0,23,30.00,40.00,SummerDesignDay
8,14.869258065653357
10,2125049.0414797409
321,12000.0
2,1, 7,21, 0,23,40.00,50.00,SummerDesignDay
8,14.817676172580706
10,2125049.0414797409
321,531419.1271108105
2,1, 7,21, 0,23,50.00,60.00,SummerDesignDay
8,14.765990692483252
10,2125049.0414797409
321,53975.23345866348
2,1, 7,21, 0,23, 0.00,60.00,SummerDesignDay
555,25.349880351729074
595,25.750736702966085
635,26.224391702099195
675,26.66869789456392
715,25.90617316409883
755,27.351887005710226
2,1, 7,21, 0,24, 0.00,10.00,SummerDesignDay
8,14.714211508387555
10,1996374.6472745394
321,12000.0
2,1, 7,21, 0,24,10.00,20.00,SummerDesignDay
8,14.662333465801618
10,1996374.6472745394
321,12000.0
2,1, 7,21, 0,24,20.00,30.00,SummerDesignDay
8,14.61035058411449
10,1996374.6472745394
321,12000.0
2,1, 7,21, 0,24,30.00,40.00,SummerDesignDay
8,14.558273322375906
10,1996374.6472745394
321,12000.0
2,1, 7,21, 0,24,40.00,50.00,SummerDesignDay
8,14.506095721461503
10,1996374.6472745394
321,556919.8173739839
2,1, 7,21, 0,24,50.00,60.00,SummerDesignDay
8,14.453812760328488
10,1996374.6472745394
321,12000.0
2,1, 7,21, 0,24, 0.00,60.00,SummerDesignDay
555,25.138042976570433
595,25.583759548302763
635,26.10425168598931
675,26.635087132683056
715,25.726458409398956
755,27.347245786875079
3,1, 7,21, 0,SummerDesignDay
556,42.84446247043417,37.245577020653488,15,40,48.19262596983536, 5,50
596,47.21311433034186,42.22141557932969,22,20,50.42083512683604,16,40
636,44.86821286906103,40.256149415236318,22,29,49.139369326760419, 7, 3
676,42.952859446010787,39.05417752970213,22,50,47.545311590999258, 7, 5
716,45.974601675385347,40.8531755877174,22,29,48.81204721163927, 7, 3
756,42.425323959443357,35.89283573083617,22,50,47.981700322693018, 7, 3
4,1, 7
7,21.096875,15.3,21, 5,60,27.8,21,14,60
1,EDMONTON INTL AP ANN HTG 99.6% CONDNS DB,  53.31,-113.58,  -7.00, 723.30
2,1, 1,21, 0, 1, 0.00,10.00,WinterDesignDay
8,-32.6
10,1996374.6472745394
321,11583948.549045027
2,1, 1,21, 0, 1,10.00,20.00,WinterDesignDay
8,-32.6
10,1996374.6472745394
321,11658722.332865736
2,1, 1,21, 0, 1,20.00,30.00,WinterDesignDay
8,-32.6
10,1996374.6472745394
321,11731475.30552992
2,1, 1,21, 0, 1,30.00,40.00,WinterDesignDay
8,-32.6
10,1996374.6472745394
321,11802099.19611899
2,1, 1,21, 0, 1,40.00,50.00,WinterDesignDay
8,-32.6
10,1996374.6472745394
321,12423412.332183719
2,1, 1,21, 0, 1,50.00,60.00,WinterDesignDay
8,-32.6
10,1996374.6472745394
321,11937761.761570504
2,1, 1,21, 0, 1, 0.00,60.00,WinterDesignDay
555,11.519132444570458
595,18.000037182366837
635,18.000152098497897
675,18.00012047774804
715,18.000161954846857
755,18.00011351396037
2,1, 1,21, 0, 2, 0.00,10.00,WinterDesignDay
8,-32.6
10,1996374.6472745394
321,12002963.511997112
2,1, 1,21, 0, 2,10.00,20.00,WinterDesignDay
8,-32.6
10,1996374.6472745394
321,12067390.946908664
2,1, 1,21, 0, 2,20.00,30.00,WinterDesignDay
8,-32.6
10,1996374.6472745394
321,12130742.254184757
2,1, 1,21, 0, 2,30.00,40.00,WinterDesignDay
8,-32.6
10,1996374.6472745394
321,12743238.103427303
2,1, 1,21, 0, 2,40.00,50.00,WinterDesignDay
8,-32.6
10,1996374.6472745394
321,12254084.92422847
2,1, 1,21, 0, 2,50.00,60.00,WinterDesignDay
8,-32.6
10,1996374.6472745394
321,12314187.380203147
2,1, 1,21, 0, 2, 0.00,60.00,WinterDesignDay
555,11.304052990601376
595,18.000038173265094
635,18.000122683343368
675,18.000099415905649
715,18.000129579176038
755,18.000094316506794
2,1, 1,21, 0, 3, 0.00,10.00,WinterDesignDay
8,-32.6
10,1996374.6472745394
321,12373820.478696792
2,1, 1,21, 0, 3,10.00,20.00,WinterDesignDay
8,-32.6
10,1996374.6472745394
321,12432693.96966936
2,1, 1,21, 0, 3,20.00,30.00,WinterDesignDay
8,-32.6
10,1996374.6472745394
321,13037581.92224816
2,1, 1,21, 0, 3,30.00,40.00,WinterDesignDay
8,-32.6
10,1996374.6472745394
321,12547626.425788798
2,1, 1,21, 0, 3,40.00,50.00,WinterDesignDay
8,-32.6
10,1996374.6472745394
321,12604054.728567997
2,1, 1,21, 0, 3,50.00,60.00,WinterDesignDay
8,-32.6
10,1996374.6472745394
321,12659989.515251473
2,1, 1,21, 0, 3, 0.00,60.00,WinterDesignDay
555,11.104302666221358
595,18.000036651522675
635,18.000100669744055
675,18.000082903628159
715,18.000105814228549
755,18.000079065791238
2,1, 1,21, 0, 4, 0.00,10.00,WinterDesignDay
8,-32.6
10,1996374.6472745394
321,13065505.260766356
2,1, 1,21, 0, 4,10.00,20.00,WinterDesignDay
8,-32.6
10,1996374.6472745394
321,13012599.466596883
2,1, 1,21, 0, 4,20.00,30.00,WinterDesignDay
8,-32.6
10,1996374.6472745394
321,12823018.040943722
2,1, 1,21, 0, 4,30.00,40.00,WinterDesignDay
8,-32.6
10,1996374.6472745394
321,12876182.532108888
2,1, 1,21, 0, 4,40.00,50.00,WinterDesignDay
8,-32.6
10,1996374.6472745394
321,12928767.99190521
2,1, 1,21, 0, 4,50.00,60.00,WinterDesignDay
8,-32.6
10,1996374.6472745394
321,13534497.82414858
2,1, 1,21, 0, 4, 0.00,60.00,WinterDesignDay
555,10.920213622900532
595,18.00003465653437
635,18.000084506046066
675,18.000070181248075
715,18.000088775793917
755,18.000067139486839
2,1, 1,21, 0, 5, 0.00,10.00,WinterDesignDay
8,-32.6
10,1996374.6472745394
321,13031787.475689173
2,1, 1,21, 0, 5,10.00,20.00,WinterDesignDay
8,-32.6
10,1996374.6472745394
321,13081847.223702049
2,1, 1,21, 0, 5,20.00,30.00,WinterDesignDay
8,-32.6
10,1996374.6472745394
321,13131765.33349933
2,1, 1,21, 0, 5,30.00,40.00,WinterDesignDay
8,-32.6
10,1996374.6472745394
321,13181105.516005908
2,1, 1,21, 0, 5,40.00,50.00,WinterDesignDay
8,-32.6
10,1996374.6472745394
321,13781478.992854389
2,1, 1,21, 0, 5,50.00,60.00,WinterDesignDay
8,-32.6
10,1996374.6472745394
321,13277635.099012375
2,1, 1,21, 0, 5, 0.00,60.00,WinterDesignDay
555,10.751993601963596
595,18.00003295821907
635,18.00007279128148
675,18.00006047601696
715,18.000076764987438
755,18.00005789347701
2,1, 1,21, 0, 6, 0.00,10.00,WinterDesignDay
8,-32.6
10,1996374.6472745394
321,13324631.329721209
2,1, 1,21, 0, 6,10.00,20.00,WinterDesignDay
8,-32.6
10,1996374.6472745394
321,13371444.85902772
2,1, 1,21, 0, 6,20.00,30.00,WinterDesignDay
8,-32.6
10,1996374.6472745394
321,13417689.682075343
2,1, 1,21, 0, 6,30.00,40.00,WinterDesignDay
8,-32.6
10,1996374.6472745394
321,14012309.9686232
2,1, 1,21, 0, 6,40.00,50.00,WinterDesignDay
8,-32.6
10,1996374.6472745394
321,13507930.84138358
2,1, 1,21, 0, 6,50.00,60.00,WinterDesignDay
8,-32.6
10,1996374.6472745394
321,13552033.458954659
2,1, 1,21, 0, 6, 0.00,60.00,WinterDesignDay
555,10.597583184659369
595,18.000031813686158
635,18.00006440651811
675,18.000053134671913
715,18.000068441687224
755,18.000050776576275
2,1, 1,21, 0, 7, 0.00,10.00,WinterDesignDay
8,-32.6
10,2007105.923340849
321,21547566.2073283
2,1, 1,21, 0, 7,10.00,20.00,WinterDesignDay
8,-32.6
10,1996374.6472745394
321,15155130.805020575
2,1, 1,21, 0, 7,20.00,30.00,WinterDesignDay
8,-32.6
10,1996374.6472745394
321,20827939.3875691
2,1, 1,21, 0, 7,30.00,40.00,WinterDesignDay
8,-32.6
10,1996374.6472745394
321,18936206.085769357
2,1, 1,21, 0, 7,40.00,50.00,WinterDesignDay
8,-32.6
10,1996374.6472745394
321,18679060.709695754
2,1, 1,21, 0, 7,50.00,60.00,WinterDesignDay
8,-32.6
10,1996374.6472745394
321,18529781.967325074
2,1, 1,21, 0, 7, 0.00,60.00,WinterDesignDay
555,10.46437380013091
595,19.97286273460489
635,19.990063375728889
675,20.001625594011697
715,19.98444078556564
755,20.00087108164242
2,1, 1,21, 0, 8, 0.00,10.00,WinterDesignDay
8,-32.6
10,2891313.5949775169
321,28982204.320951534
2,1, 1,21, 0, 8,10.00,20.00,WinterDesignDay
8,-32.6
10,2869851.0428448978
321,19988287.89514146
2,1, 1,21, 0, 8,20.00,30.00,WinterDesignDay
8,-32.6
10,2869851.0428448978
321,24649309.330963736
2,1, 1,21, 0, 8,30.00,40.00,WinterDesignDay
8,-32.6
10,2869851.0428448978
321,23735206.364509446
2,1, 1,21, 0, 8,40.00,50.00,WinterDesignDay
8,-32.6
10,2869851.0428448978
321,22742041.454599356
2,1, 1,21, 0, 8,50.00,60.00,WinterDesignDay
8,-32.6
10,2869851.0428448978
321,23047675.24141243
2,1, 1,21, 0, 8, 0.00,60.00,WinterDesignDay
555,10.414648632743186
595,21.96830884545189
635,21.984355273363759
675,21.9963087780667
715,21.97883709868296
755,21.99579284094965
2,1, 1,21, 0, 9, 0.00,10.00,WinterDesignDay
8,-32.6
10,6193663.434503142
321,20659198.808545248
2,1, 1,21, 0, 9,10.00,20.00,WinterDesignDay
8,-32.6
10,6193663.434503142
321,20121182.464030997
2,1, 1,21, 0, 9,20.00,30.00,WinterDesignDay
8,-32.6
10,6193663.434503142
321,19826666.348739376
2,1, 1,21, 0, 9,30.00,40.00,WinterDesignDay
8,-32.6
10,6193663.434503142
321,19583581.021588595
2,1, 1,21, 0, 9,40.00,50.00,WinterDesignDay
8,-32.6
10,6193663.434503142
321,19381764.818291665
2,1, 1,21, 0, 9,50.00,60.00,WinterDesignDay
8,-32.6
10,6193663.434503142
321,19208527.11171256
2,1, 1,21, 0, 9, 0.00,60.00,WinterDesignDay
555,10.507596633578814
595,22.000325277070727
635,22.00044402443127
675,22.000338892095685
715,22.00048978463684
755,22.000306806720585
2,1, 1,21, 0,10, 0.00,10.00,WinterDesignDay
8,-32.6
10,6791934.938318457
321,18485008.5887954
2,1, 1,21, 0,10,10.00,20.00,WinterDesignDay
8,-32.6
10,6791934.938318457
321,18303920.080584416
2,1, 1,21, 0,10,20.00,30.00,WinterDesignDay
8,-32.6
10,6791934.938318457
321,18313834.138281388
2,1, 1,21, 0,10,30.00,40.00,WinterDesignDay
8,-32.6
10,6791934.938318457
321,18183834.820283373
2,1, 1,21, 0,10,40.00,50.00,WinterDesignDay
8,-32.6
10,6791934.938318457
321,18066467.047206876
2,1, 1,21, 0,10,50.00,60.00,WinterDesignDay
8,-32.6
10,6791934.938318457
321,17958837.19157846
2,1, 1,21, 0,10, 0.00,60.00,WinterDesignDay
555,10.695716622159895
595,22.000504874605825
635,22.00071547648848
675,22.00051403870832
715,22.00081280130975
755,22.00045770710652
2,1, 1,21, 0,11, 0.00,10.00,WinterDesignDay
8,-32.6