Program Version,EnergyPlus, Version 8.9.0-eba93e8e1b, YMD=2018.11.01 15:59
1,5,Environment Title[],Latitude[deg],Longitude[deg],Time Zone[],Elevation[m]
2,8,Day of Simulation[],Month[],Day of Month[],DST Indicator[1=yes 0=no],Hour[],StartMinute[],EndMinute[],DayType
3,5,Cumulative Day of Simulation[],Month[],Day of Month[],DST Indicator[1=yes 0=no],DayType  ! When Daily Report Variables Requested
4,2,Cumulative Days of Simulation[],Month[]  ! When Monthly Report Variables Requested
5,1,Cumulative Days of Simulation[] ! When Run Period Report Variables Requested
6,1,Calendar Year of Simulation[] ! When Annual Report Variables Requested
7,9,Environment,Site Outdoor Air Drybulb Temperature [C] !Monthly [Value,Min,Day,Hour,Minute,Max,Day,Hour,Minute]
8,1,Environment,Site Outdoor Air Wetbulb Temperature [C] !TimeStep
357,1,ATTIC ZN,Zone Air Temperature [C] !Hourly
358,7,ATTIC ZN,Zone Air Relative Humidity [%] !Daily [Value,Min,Hour,Minute,Max,Hour,Minute]
397,1,CORE_ZN ZN,Zone Air Temperature [C] !Hourly
398,7,CORE_ZN ZN,Zone Air Relative Humidity [%] !Daily [Value,Min,Hour,Minute,Max,Hour,Minute]
437,1,PERIMETER_ZN_1 ZN,Zone Air Temperature [C] !Hourly
438,7,PERIMETER_ZN_1 ZN,Zone Air Relative Humidity [%] !Daily [Value,Min,Hour,Minute,Max,Hour,Minute]
477,1,PERIMETER_ZN_2 ZN,Zone Air Temperature [C] !Hourly
478,7,PERIMETER_ZN_2 ZN,Zone Air Relative Humidity [%] !Daily [Value,Min,Hour,Minute,Max,Hour,Minute]
517,1,PERIMETER_ZN_3 ZN,Zone Air Temperature [C] !Hourly
518,7,PERIMETER_ZN_3 ZN,Zone Air Relative Humidity [%] !Daily [Value,Min,Hour,Minute,Max,Hour,Minute]
557,1,PERIMETER_ZN_4 ZN,Zone Air Temperature [C] !Hourly
558,7,PERIMETER_ZN_4 ZN,Zone Air Relative Humidity [%] !Daily [Value,Min,Hour,Minute,Max,Hour,Minute]
10,1,Electricity:Facility [J] !TimeStep
708,1,DistrictCooling:Facility [J] !TimeStep
671,1,DistrictHeating:Facility [J] !TimeStep
End of Data Dictionary
1,WINDSOR INTL AP ANN CLG .4% CONDNS DB=>MWB,  42.28, -82.96,  -5.00, 189.60
2,1, 7,21, 0, 1, 0.00,10.00,SummerDesignDay
8,20.97335962749645
10,588883.2432939032
671,0.0
708,0.0
2,1, 7,21, 0, 1,10.00,20.00,SummerDesignDay
8,20.946623966558698
10,588883.2432939032
671,0.0
708,0.0
2,1, 7,21, 0, 1,20.00,30.00,SummerDesignDay
8,20.919864648406099
10,588883.2432939032
671,0.0
708,0.0
2,1, 7,21, 0, 1,30.00,40.00,SummerDesignDay
8,20.893072780972653
10,588883.2432939032
671,0.0
708,0.0
2,1, 7,21, 0, 1,40.00,50.00,SummerDesignDay
8,20.866252591795904
10,588883.2432939032
671,0.0
708,0.0
2,1, 7,21, 0, 1,50.00,60.00,SummerDesignDay
8,20.83940529755027
10,588883.2432939032
671,0.0
708,0.0
2,1, 7,21, 0, 1, 0.00,60.00,SummerDesignDay
357,26.04010336250222
397,25.90823342131567
437,25.968865523317615
477,26.13304664481517
517,25.96438291205818
557,26.471656717262609
2,1, 7,21, 0, 2, 0.00,10.00,SummerDesignDay
8,20.821490830520078
10,588883.2432939032
671,0.0
708,0.0
2,1, 7,21, 0, 2,10.00,20.00,SummerDesignDay
8,20.80356907950476
10,588883.2432939032
671,0.0
708,0.0
2,1, 7,21, 0, 2,20.00,30.00,SummerDesignDay
8,20.785630459928176
10,588883.2432939032
671,0.0
708,0.0
2,1, 7,21, 0, 2,30.00,40.00,SummerDesignDay
8,20.767678988386437
10,588883.2432939032
671,0.0
708,0.0
2,1, 7,21, 0, 2,40.00,50.00,SummerDesignDay
8,20.749714519003836
10,588883.2432939032
671,0.0
708,0.0
2,1, 7,21, 0, 2,50.00,60.00,SummerDesignDay
8,20.731737894032638
10,588883.2432939032
671,0.0
708,0.0
2,1, 7,21, 0, 2, 0.00,60.00,SummerDesignDay
357,25.888581054252538
397,25.75444480963257
437,25.79644472261894
477,25.957656571386268
517,25.79657959176198
557,26.27132740003105
2,1, 7,21, 0, 3, 0.00,10.00,SummerDesignDay
8,20.71824752870708
10,588883.2432939032
671,0.0
708,0.0
2,1, 7,21, 0, 3,10.00,20.00,SummerDesignDay
8,20.704750126303375
10,588883.2432939032
671,0.0
708,0.0
2,1, 7,21, 0, 3,20.00,30.00,SummerDesignDay
8,20.691245356087916
10,588883.2432939032
671,0.0
708,0.0
2,1, 7,21, 0, 3,30.00,40.00,SummerDesignDay
8,20.677737899804865
10,588883.2432939032
671,0.0
708,0.0
2,1, 7,21, 0, 3,40.00,50.00,SummerDesignDay
8,20.664218701470074
10,588883.2432939032
671,0.0
708,0.0
2,1, 7,21, 0, 3,50.00,60.00,SummerDesignDay
8,20.650692742521078
10,588883.2432939032
671,0.0
708,0.0
2,1, 7,21, 0, 3, 0.00,60.00,SummerDesignDay
357,25.752699201831978
397,25.622130600685819
437,25.644769673247735
477,25.801228323562275
517,25.648572593482386
557,26.089333265746178
2,1, 7,21, 0, 4, 0.00,10.00,SummerDesignDay
8,20.637159777940288
10,588883.2432939032
671,0.0
708,0.0
2,1, 7,21, 0, 4,10.00,20.00,SummerDesignDay
8,20.623619586556936
10,588883.2432939032
671,0.0
708,0.0
2,1, 7,21, 0, 4,20.00,30.00,SummerDesignDay
8,20.610072215754984
10,588883.2432939032
671,0.0
708,0.0
2,1, 7,21, 0, 4,30.00,40.00,SummerDesignDay
8,20.596517646806786
10,588883.2432939032
671,0.0
708,0.0
2,1, 7,21, 0, 4,40.00,50.00,SummerDesignDay
8,20.582956194307774
10,588883.2432939032
671,0.0
708,0.0
2,1, 7,21, 0, 4,50.00,60.00,SummerDesignDay
8,20.569387426741398
10,588883.2432939032
671,0.0
708,0.0
2,1, 7,21, 0, 4, 0.00,60.00,SummerDesignDay
357,25.623379976460325
397,25.498596486701769
437,25.502207423120749
477,25.65328909399038
517,25.50911580762398
557,25.918562016703619
2,1, 7,21, 0, 5, 0.00,10.00,SummerDesignDay
8,20.560347950095957
10,588883.2432939032
671,0.0
708,0.0
2,1, 7,21, 0, 5,10.00,20.00,SummerDesignDay
8,20.55129528466898
10,588883.2432939032
671,0.0
708,0.0
2,1, 7,21, 0, 5,20.00,30.00,SummerDesignDay
8,20.54223336682703
10,588883.2432939032
671,0.0
708,0.0
2,1, 7,21, 0, 5,30.00,40.00,SummerDesignDay
8,20.533174555758774
10,588883.2432939032
671,0.0
708,0.0
2,1, 7,21, 0, 5,40.00,50.00,SummerDesignDay
8,20.524111871226514
10,588883.2432939032
671,0.0
708,0.0
2,1, 7,21, 0, 5,50.00,60.00,SummerDesignDay
8,20.515045991390708
10,588883.2432939032
671,0.0
708,0.0
2,1, 7,21, 0, 5, 0.00,60.00,SummerDesignDay
357,25.49715864055099
397,25.379867276043468
437,25.36580593525432
477,25.511567740399717
517,25.37546376824302
557,25.755896443010618
2,1, 7,21, 0, 6, 0.00,10.00,SummerDesignDay
8,20.524111871226514
10,588883.2432939032
671,0.0
708,0.0
2,1, 7,21, 0, 6,10.00,20.00,SummerDesignDay
8,20.533174555758774
10,588883.2432939032
671,0.0
708,0.0
2,1, 7,21, 0, 6,20.00,30.00,SummerDesignDay
8,20.54223336682703
10,588883.2432939032
671,0.0
708,0.0
2,1, 7,21, 0, 6,30.00,40.00,SummerDesignDay
8,20.55129528466898
10,588883.2432939032
671,0.0
708,0.0
2,1, 7,21, 0, 6,40.00,50.00,SummerDesignDay
8,20.560347950095957
10,588883.2432939032
671,0.0
708,0.0
2,1, 7,21, 0, 6,50.00,60.00,SummerDesignDay
8,20.569387426741398
10,588883.2432939032
671,0.0
708,0.0
2,1, 7,21, 0, 6, 0.00,60.00,SummerDesignDay
357,25.46116980165697
397,25.298386137437097
437,25.28857016145685
477,25.640166278800807
517,25.344594232143654
557,25.651645510339276
2,1, 7,21, 0, 7, 0.00,10.00,SummerDesignDay
8,20.601036940725476
10,588883.2432939032
671,0.0
708,10580560.80258055
2,1, 7,21, 0, 7,10.00,20.00,SummerDesignDay
8,20.6326468607383
10,588883.2432939032
671,0.0
708,93078.79087189946
2,1, 7,21, 0, 7,20.00,30.00,SummerDesignDay
8,20.664218701470074
10,588883.2432939032
671,0.0
708,4241792.440237733
2,1, 7,21, 0, 7,30.00,40.00,SummerDesignDay
8,20.69574734578554
10,588883.2432939032
671,0.0
708,6414887.634141098
2,1, 7,21, 0, 7,40.00,50.00,SummerDesignDay
8,20.727242037099676
10,588883.2432939032
671,0.0
708,5227903.358582415
2,1, 7,21, 0, 7,50.00,60.00,SummerDesignDay
8,20.75869794330259
10,588883.2432939032
671,0.0
708,5205205.468360134
2,1, 7,21, 0, 7, 0.00,60.00,SummerDesignDay
357,25.771760446185416
397,23.80250908907917
437,23.860067171558215
477,23.96671568206148
517,23.868734850686029
557,23.86351338795971
2,1, 7,21, 0, 8, 0.00,10.00,SummerDesignDay
8,20.83492764259517
10,1462359.638864261
671,0.0
708,6078044.5559662249
2,1, 7,21, 0, 8,10.00,20.00,SummerDesignDay
8,20.9109370998051
10,1462359.638864261
671,0.0
708,6235914.674793174
2,1, 7,21, 0, 8,20.00,30.00,SummerDesignDay
8,20.98671784925484
10,1462359.638864261
671,0.0
708,6362757.184325524
2,1, 7,21, 0, 8,30.00,40.00,SummerDesignDay
8,21.062275376793069
10,1462359.638864261
671,0.0
708,6488081.719003517
2,1, 7,21, 0, 8,40.00,50.00,SummerDesignDay
8,21.137616312257319
10,1462359.638864261
671,0.0
708,6596739.222667508
2,1, 7,21, 0, 8,50.00,60.00,SummerDesignDay
8,21.212731630626729
10,1462359.638864261
671,0.0
708,6685896.501986587
2,1, 7,21, 0, 8, 0.00,60.00,SummerDesignDay
357,26.40973424980939
397,23.999999999460269
437,23.999999999963867
477,24.000000000000015
517,23.999999999939324
557,23.999999999913969
2,1, 7,21, 0, 9, 0.00,10.00,SummerDesignDay
8,21.296425092706909
10,4786172.030522507
671,0.0
708,9309358.112901412
2,1, 7,21, 0, 9,10.00,20.00,SummerDesignDay
8,21.379850586892247
10,4786172.030522507
671,0.0
708,9471403.830022494
2,1, 7,21, 0, 9,20.00,30.00,SummerDesignDay
8,21.463000242011085
10,4786172.030522507
671,0.0
708,9547760.168510018
2,1, 7,21, 0, 9,30.00,40.00,SummerDesignDay
8,21.54588037790266
10,4786172.030522507
671,0.0
708,9641399.890280227
2,1, 7,21, 0, 9,40.00,50.00,SummerDesignDay
8,21.628496559964245
10,4786172.030522507
671,0.0
708,9730508.485930028
2,1, 7,21, 0, 9,50.00,60.00,SummerDesignDay
8,21.710841836813754
10,4786172.030522507
671,0.0
708,9817721.188963876
2,1, 7,21, 0, 9, 0.00,60.00,SummerDesignDay
357,27.226230303180214
397,24.000000000000033
437,24.00000000000004
477,24.00000000000009
517,24.000000000000047
557,24.000000000000055
2,1, 7,21, 0,10, 0.00,10.00,SummerDesignDay
8,21.784293470592837
10,5384443.534337821
671,0.0
708,10470774.418116637
2,1, 7,21, 0,10,10.00,20.00,SummerDesignDay
8,21.85753875946139
10,5384443.534337821
671,0.0
708,10624945.184878456
2,1, 7,21, 0,10,20.00,30.00,SummerDesignDay
8,21.930569281126119
10,5384443.534337821
671,0.0
708,10745819.18172504
2,1, 7,21, 0,10,30.00,40.00,SummerDesignDay
8,22.00339025200843
10,5384443.534337821
671,0.0
708,10829207.435037125
2,1, 7,21, 0,10,40.00,50.00,SummerDesignDay
8,22.076007189719684
10,5384443.534337821
671,0.0
708,10884670.004316114
2,1, 7,21, 0,10,50.00,60.00,SummerDesignDay
8,22.148412849449114
10,5384443.534337821
671,0.0
708,10926828.537222742
2,1, 7,21, 0,10, 0.00,60.00,SummerDesignDay
357,28.048106141934644
397,24.00000000000004
437,24.000000000000015
477,23.999999999999976
517,24.000000000000047
557,24.0
2,1, 7,21, 0,11, 0.00,10.00,SummerDesignDay
8,22.212128716251724
10,5384443.534337821
671,0.0
708,10953867.295194801
2,1, 7,21, 0,11,10.00,20.00,SummerDesignDay
8,22.2756889298338
10,5384443.534337821
671,0.0
708,10981509.806161365
2,1, 7,21, 0,11,20.00,30.00,SummerDesignDay
8,22.339085057218214
10,5384443.534337821
671,0.0
708,11008863.075334909
2,1, 7,21, 0,11,30.00,40.00,SummerDesignDay
8,22.402327894875019
10,5384443.534337821
671,0.0
708,11035520.317602465
2,1, 7,21, 0,11,40.00,50.00,SummerDesignDay
8,22.465408036983417
10,5384443.534337821
671,0.0
708,11068381.703013057
2,1, 7,21, 0,11,50.00,60.00,SummerDesignDay
8,22.52833534804036
10,5384443.534337821
671,0.0
708,11109950.329506863
2,1, 7,21, 0,11, 0.00,60.00,SummerDesignDay
357,28.760720043476807
397,24.00000000000004
437,24.000000000000047
477,24.000000000000047
517,24.00000000000003
557,24.000000000000019
2,1, 7,21, 0,12, 0.00,10.00,SummerDesignDay
8,22.570195859141106
10,5384443.534337821
671,0.0
708,11142107.540173937
2,1, 7,21, 0,12,10.00,20.00,SummerDesignDay
8,22.611991082803763
10,5384443.534337821
671,0.0
708,11187270.946139237
2,1, 7,21, 0,12,20.00,30.00,SummerDesignDay
8,22.653717080189638
10,5384443.534337821
671,0.0
708,11245726.495952618
2,1, 7,21, 0,12,30.00,40.00,SummerDesignDay
8,22.695370353576199
10,5384443.534337821
671,0.0
708,11319875.058309114
2,1, 7,21, 0,12,40.00,50.00,SummerDesignDay
8,22.73695904376563
10,5384443.534337821
671,0.0
708,11407081.138466597
2,1, 7,21, 0,12,50.00,60.00,SummerDesignDay
8,22.778474332413724
10,5384443.534337821
671,0.0
708,11499749.536408734
2,1, 7,21, 0,12, 0.00,60.00,SummerDesignDay
357,29.309511238771419
397,24.000000000000005
437,24.000000000000019
477,24.000000000000044
517,24.000000000000047
557,24.00000000000008
2,1, 7,21, 0,13, 0.00,10.00,SummerDesignDay
8,22.811641542609853
10,5384443.534337821
671,0.0
708,11136514.459302089
2,1, 7,21, 0,13,10.00,20.00,SummerDesignDay
8,22.844764583702866
10,5384443.534337821
671,0.0
708,11199731.92725877
2,1, 7,21, 0,13,20.00,30.00,SummerDesignDay
8,22.877849014999574
10,5384443.534337821
671,0.0
708,11266740.398218597
2,1, 7,21, 0,13,30.00,40.00,SummerDesignDay
8,22.910875849161117
10,5384443.534337821
671,0.0
708,11334558.740476788
2,1, 7,21, 0,13,40.00,50.00,SummerDesignDay
8,22.943868108968599
10,5384443.534337821
671,0.0
708,11352171.96202666
2,1, 7,21, 0,13,50.00,60.00,SummerDesignDay
8,22.97681791561112
10,5384443.534337821
671,0.0
708,11364336.859484023
2,1, 7,21, 0,13, 0.00,60.00,SummerDesignDay
357,29.682196754539775
397,24.00000000000001
437,24.00000000000006
477,23.999999999999984
517,23.99999999999999
557,24.000000000000055
2,1, 7,21, 0,14, 0.00,10.00,SummerDesignDay
8,22.99738479364458
10,5384443.534337821
671,0.0
708,11376929.501676448
2,1, 7,21, 0,14,10.00,20.00,SummerDesignDay
8,23.017939742631105
10,5384443.534337821
671,0.0
708,11399370.568172662
2,1, 7,21, 0,14,20.00,30.00,SummerDesignDay
8,23.03847761546047
10,5384443.534337821
671,0.0
708,11428011.450792242
2,1, 7,21, 0,14,30.00,40.00,SummerDesignDay
8,23.058998564859715
10,5384443.534337821
671,0.0
708,11452659.943581477
2,1, 7,21, 0,14,40.00,50.00,SummerDesignDay
8,23.079502846596939
10,5384443.534337821
671,0.0
708,11475532.07216385
2,1, 7,21, 0,14,50.00,60.00,SummerDesignDay
8,23.099995241993793
10,5384443.534337821
671,0.0
708,11522217.081853347
2,1, 7,21, 0,14, 0.00,60.00,SummerDesignDay
357,29.892427995497
397,24.000000000000015
437,24.0
477,24.000000000000019
517,24.000000000000033
557,24.0
2,1, 7,21, 0,15, 0.00,10.00,SummerDesignDay
8,23.099995241993793
10,5384443.534337821
671,0.0
708,11960233.712267699
2,1, 7,21, 0,15,10.00,20.00,SummerDesignDay
8,23.099995241993793
10,5384443.534337821
671,0.0
708,12076422.80767036
2,1, 7,21, 0,15,20.00,30.00,SummerDesignDay
8,23.099995241993793
10,5384443.534337821
671,0.0
708,12215855.30818912
2,1, 7,21, 0,15,30.00,40.00,SummerDesignDay
8,23.099995241993793
10,5384443.534337821
671,0.0
708,12360783.790916413
2,1, 7,21, 0,15,40.00,50.00,SummerDesignDay
8,23.099995241993793
10,5384443.534337821
671,0.0
708,12504270.817176389
2,1, 7,21, 0,15,50.00,60.00,SummerDesignDay
8,23.099995241993793
10,5384443.534337821
671,0.0
708,12640756.466619449
2,1, 7,21, 0,15, 0.00,60.00,SummerDesignDay
357,29.93280123784953
397,24.0
437,24.000000000000047
477,24.000000000000019
517,24.0
557,24.000000000000044
2,1, 7,21, 0,16, 0.00,10.00,SummerDesignDay
8,23.075403091243229
10,5384443.534337821
671,0.0
708,12751052.061508488
2,1, 7,21, 0,16,10.00,20.00,SummerDesignDay
8,23.05079230207949
10,5384443.534337821
671,0.0
708,12854859.84226486
2,1, 7,21, 0,16,20.00,30.00,SummerDesignDay
8,23.02615697322547
10,5384443.534337821
671,0.0
708,12953801.175718964
2,1, 7,21, 0,16,30.00,40.00,SummerDesignDay
8,23.00149729135515
10,5384443.534337821
671,0.0
708,13046848.127266199
2,1, 7,21, 0,16,40.00,50.00,SummerDesignDay
8,22.97681791561112
10,5384443.534337821
671,0.0
708,13120753.308358686
2,1, 7,21, 0,16,50.00,60.00,SummerDesignDay
8,22.952109621926977
10,5384443.534337821
671,0.0
708,13171418.097375077
2,1, 7,21, 0,16, 0.00,60.00,SummerDesignDay
357,29.788221201299128
397,24.000000000000044
437,24.000000000000047
477,23.99999999999997
517,24.0
557,24.000000000000058
2,1, 7,21, 0,17, 0.00,10.00,SummerDesignDay
8,22.91912809061474
10,5384443.534337821
671,0.0
708,13202594.388477063
2,1, 7,21, 0,17,10.00,20.00,SummerDesignDay
8,22.886102743899686
10,5384443.534337821
671,0.0
708,13224715.4456097
2,1, 7,21, 0,17,20.00,30.00,SummerDesignDay
8,22.853038160073415
10,5384443.534337821
671,0.0
708,13237948.083921152
2,1, 7,21, 0,17,30.00,40.00,SummerDesignDay
8,22.81992592140411
10,5384443.534337821
671,0.0
708,13235840.827509869
2,1, 7,21, 0,17,40.00,50.00,SummerDesignDay
8,22.78677034885121
10,5384443.534337821
671,0.0
708,13229858.037592913
2,1, 7,21, 0,17,50.00,60.00,SummerDesignDay
8,22.753575340556599
10,5384443.534337821
671,0.0
708,13219363.136904926
2,1, 7,21, 0,17, 0.00,60.00,SummerDesignDay
357,29.462741514348556
397,24.000000000000069
437,24.000000000000019
477,24.000000000000055
517,24.000000000000019
557,23.99999999999996
2,1, 7,21, 0,18, 0.00,10.00,SummerDesignDay
8,22.71201418012816
10,5016276.455066859
671,0.0
708,12819671.363658613
2,1, 7,21, 0,18,10.00,20.00,SummerDesignDay
8,22.67038434655908
10,5016276.455066859
671,0.0
708,12739859.418280118
2,1, 7,21, 0,18,20.00,30.00,SummerDesignDay
8,22.628689701657064
10,5016276.455066859
671,0.0
708,12663809.951740228
2,1, 7,21, 0,18,30.00,40.00,SummerDesignDay
8,22.58692261610899
10,5016276.455066859
671,0.0
708,12570371.011788665
2,1, 7,21, 0,18,40.00,50.00,SummerDesignDay
8,22.545094622178838
10,5016276.455066859
671,0.0
708,12479242.547036369
2,1, 7,21, 0,18,50.00,60.00,SummerDesignDay
8,22.50318309182767
10,5016276.455066859
671,0.0
708,12396498.968522029
2,1, 7,21, 0,18, 0.00,60.00,SummerDesignDay
357,28.99007772132619
397,24.00000000000001
437,24.00000000000004
477,24.000000000000026
517,24.00000000000003
557,24.000000000000076
2,1, 7,21, 0,19, 0.00,10.00,SummerDesignDay
8,22.440193165050539
10,2991357.519076566
671,0.0
708,10676510.588599218
2,1, 7,21, 0,19,10.00,20.00,SummerDesignDay
8,22.377049774700379
10,2991357.519076566
671,0.0
708,10409619.434941926
2,1, 7,21, 0,19,20.00,30.00,SummerDesignDay
8,22.313748391361807
10,2991357.519076566
671,0.0
708,10207293.285919464
2,1, 7,21, 0,19,30.00,40.00,SummerDesignDay
8,22.250283638762555
10,2991357.519076566
671,0.0
708,10014081.444457472
2,1, 7,21, 0,19,40.00,50.00,SummerDesignDay
8,22.186663881675249
10,2991357.519076566
671,0.0
708,9807303.942677129
2,1, 7,21, 0,19,50.00,60.00,SummerDesignDay
8,22.12288033238562
10,2991357.519076566
671,0.0
708,9609427.908506861
2,1, 7,21, 0,19, 0.00,60.00,SummerDesignDay
357,28.3701108024719
397,24.0
437,24.00000000000004
477,23.99999999999999
517,24.000000000000044
557,24.000000000000033
2,1, 7,21, 0,20, 0.00,10.00,SummerDesignDay
8,22.076007189719684
10,1462359.638864261
671,0.0
708,8253772.753948085
2,1, 7,21, 0,20,10.00,20.00,SummerDesignDay
8,22.029043318072469
10,1462359.638864261
671,0.0
708,7942373.832216595
2,1, 7,21, 0,20,20.00,30.00,SummerDesignDay
8,21.98199252605304
10,1462359.638864261
671,0.0
708,7684703.043572427
2,1, 7,21, 0,20,30.00,40.00,SummerDesignDay
8,21.934858758847967
10,1462359.638864261
671,0.0
708,7383925.480983449
2,1, 7,21, 0,20,40.00,50.00,SummerDesignDay
8,21.887632995496593
10,1462359.638864261
671,0.0
708,7080523.921685367
2,1, 7,21, 0,20,50.00,60.00,SummerDesignDay
8,21.84032373907298
10,1462359.638864261
671,0.0
708,6768995.4911663639
2,1, 7,21, 0,20, 0.00,60.00,SummerDesignDay
357,27.639119938626647
397,24.0
437,24.000000000000015
477,24.00000000000003
517,24.000000000000019
557,24.00000000000001
2,1, 7,21, 0,21, 0.00,10.00,SummerDesignDay
8,21.801546565825509
10,1462359.638864261
671,0.0
708,6538869.564648293
2,1, 7,21, 0,21,10.00,20.00,SummerDesignDay
8,21.76271101694355
10,1462359.638864261
671,0.0
708,6345738.057925443
2,1, 7,21, 0,21,20.00,30.00,SummerDesignDay
8,21.723820025286508
10,1462359.638864261
671,0.0
708,6178656.551140653
2,1, 7,21, 0,21,30.00,40.00,SummerDesignDay
8,21.684865349420268
10,1462359.638864261
671,0.0
708,6042977.314012419
2,1, 7,21, 0,21,40.00,50.00,SummerDesignDay
8,21.64585085731248
10,1462359.638864261
671,0.0
708,5953038.974183592
2,1, 7,21, 0,21,50.00,60.00,SummerDesignDay
8,21.60678130377771
10,1462359.638864261
671,0.0
708,5868717.489597496
2,1, 7,21, 0,21, 0.00,60.00,SummerDesignDay
357,26.987258936169924
397,24.0
437,24.000000000000026
477,24.000000000000019
517,24.00000000000003
557,24.00000000000003
2,1, 7,21, 0,22, 0.00,10.00,SummerDesignDay
8,21.56764737497003
10,717557.6374991046
671,0.0
708,0.0
2,1, 7,21, 0,22,10.00,20.00,SummerDesignDay
8,21.528453025200269
10,717557.6374991046
671,0.0
708,0.0
2,1, 7,21, 0,22,20.00,30.00,SummerDesignDay
8,21.489203608374294
10,717557.6374991046
671,0.0
708,0.0
2,1, 7,21, 0,22,30.00,40.00,SummerDesignDay
8,21.44988894693607
10,717557.6374991046
671,0.0
708,0.0
2,1, 7,21, 0,22,40.00,50.00,SummerDesignDay
8,21.410513341264765
10,717557.6374991046
671,0.0
708,0.0
2,1, 7,21, 0,22,50.00,60.00,SummerDesignDay
8,21.371081521590339
10,717557.6374991046
671,0.0
708,0.0
2,1, 7,21, 0,22, 0.00,60.00,SummerDesignDay
357,26.6688042437456
397,25.337052745395498
437,25.50990106939487
477,25.63057085121604
517,25.497761621342403
557,25.899388547385287
2,1, 7,21, 0,23, 0.00,10.00,SummerDesignDay
8,21.340367013881254
10,717557.6374991046
671,0.0
708,0.0
2,1, 7,21, 0,23,10.00,20.00,SummerDesignDay
8,21.30961596310197
10,717557.6374991046
671,0.0
708,0.0
2,1, 7,21, 0,23,20.00,30.00,SummerDesignDay
8,21.27883206169926
10,717557.6374991046
671,0.0
708,0.0
2,1, 7,21, 0,23,30.00,40.00,SummerDesignDay
8,21.248005985660276
10,717557.6374991046
671,0.0
708,0.0
2,1, 7,21, 0,23,40.00,50.00,SummerDesignDay
8,21.21714394012603
10,717557.6374991046
671,0.0
708,0.0
2,1, 7,21, 0,23,50.00,60.00,SummerDesignDay
8,21.186243969194629
10,717557.6374991046
671,0.0
708,0.0
2,1, 7,21, 0,23, 0.00,60.00,SummerDesignDay
357,26.399437778627975
397,26.200530389333609
437,26.301546913196277
477,26.434662093221438
517,26.28813048958232
557,26.79271822093504
2,1, 7,21, 0,24, 0.00,10.00,SummerDesignDay
8,21.155310837526526
10,588883.2432939032
671,0.0
708,0.0
2,1, 7,21, 0,24,10.00,20.00,SummerDesignDay
8,21.12433685554014
10,588883.2432939032
671,0.0
708,0.0
2,1, 7,21, 0,24,20.00,30.00,SummerDesignDay
8,21.0933245611684
10,588883.2432939032
671,0.0
708,0.0
2,1, 7,21, 0,24,30.00,40.00,SummerDesignDay
8,21.062275376793069
10,588883.2432939032
671,0.0
708,0.0
2,1, 7,21, 0,24,40.00,50.00,SummerDesignDay
8,21.031192991283075
10,588883.2432939032
671,0.0
708,0.0
2,1, 7,21, 0,24,50.00,60.00,SummerDesignDay
8,21.000068174984919
10,588883.2432939032
671,0.0
708,0.0
2,1, 7,21, 0,24, 0.00,60.00,SummerDesignDay
357,26.21120928120118
397,26.097669677387655
437,26.166053431733233
477,26.322451463687629
517,26.15680683253162
557,26.67366517614366
3,1, 7,21, 0,SummerDesignDay
358,61.933880369913769,53.45573079511172,15,20,69.64221732351622, 6,20
398,56.517287412687128,46.17953998593509,18,60,73.95094525757279, 7, 5
438,54.76624302212988,42.87295291054256,14,60,73.83671427338065, 7, 3
478,51.797174241294239,42.13811871975803, 9,60,72.24428008437428, 7, 3
518,54.763472922143858,43.441062598182259,19,20,73.65291241270126, 7, 3
558,52.817686659953007,41.66538064549166,19,40,73.31294796907511, 7, 3
4,1, 7
7,27.120125000000006,22.9,21, 5,60,32.0,21,14,60
1,WINDSOR INTL AP ANN HTG 99.6% CONDNS DB,  42.28, -82.96,  -5.00, 189.60
2,1, 1,21, 0, 1, 0.00,10.00,WinterDesignDay
8,-15.500002903810355
10,588883.2432939032
671,7500863.543245739
708,0.0
2,1, 1,21, 0, 1,10.00,20.00,WinterDesignDay
8,-15.500002903810355
10,588883.2432939032
671,7553473.894008584
708,0.0
2,1, 1,21, 0, 1,20.00,30.00,WinterDesignDay
8,-15.500002903810355
10,588883.2432939032
671,7604520.14783818
708,0.0
2,1, 1,21, 0, 1,30.00,40.00,WinterDesignDay
8,-15.500002903810355
10,588883.2432939032
671,7654232.063514475
708,0.0
2,1, 1,21, 0, 1,40.00,50.00,WinterDesignDay
8,-15.500002903810355
10,588883.2432939032
671,7702798.099439166
708,0.0
2,1, 1,21, 0, 1,50.00,60.00,WinterDesignDay
8,-15.500002903810355
10,588883.2432939032
671,7750371.464992962
708,0.0
2,1, 1,21, 0, 1, 0.00,60.00,WinterDesignDay
357,12.163739867142637
397,18.0
437,17.99999999999998
477,17.99999999999999
517,17.999999999999984
557,17.999999999999987
2,1, 1,21, 0, 2, 0.00,10.00,WinterDesignDay
8,-15.500002903810355
10,588883.2432939032
671,7797075.793121941
708,0.0
2,1, 1,21, 0, 2,10.00,20.00,WinterDesignDay
8,-15.500002903810355
10,588883.2432939032
671,7843010.195192013
708,0.0
2,1, 1,21, 0, 2,20.00,30.00,WinterDesignDay
8,-15.500002903810355
10,588883.2432939032
671,7888253.637485508
708,0.0
2,1, 1,21, 0, 2,30.00,40.00,WinterDesignDay
8,-15.500002903810355
10,588883.2432939032
671,7932868.660058058
708,0.0
2,1, 1,21, 0, 2,40.00,50.00,WinterDesignDay
8,-15.500002903810355
10,588883.2432939032
671,7976904.495016332
708,0.0
2,1, 1,21, 0, 2,50.00,60.00,WinterDesignDay
8,-15.500002903810355
10,588883.2432939032
671,8020399.655299143
708,0.0
2,1, 1,21, 0, 2, 0.00,60.00,WinterDesignDay
357,11.963500671775686
397,18.0
437,18.0
477,18.000000000000005
517,18.000000000000005
557,18.00000000000002
2,1, 1,21, 0, 3, 0.00,10.00,WinterDesignDay
8,-15.500002903810355
10,588883.2432939032
671,8063384.067371402
708,0.0
2,1, 1,21, 0, 3,10.00,20.00,WinterDesignDay
8,-15.500002903810355
10,588883.2432939032
671,8105880.817372726
708,0.0
2,1, 1,21, 0, 3,20.00,30.00,WinterDesignDay
8,-15.500002903810355
10,588883.2432939032
671,8147907.573462088
708,0.0
2,1, 1,21, 0, 3,30.00,40.00,WinterDesignDay
8,-15.500002903810355
10,588883.2432939032
671,8189477.73926453
708,0.0
2,1, 1,21, 0, 3,40.00,50.00,WinterDesignDay
8,-15.500002903810355
10,588883.2432939032
671,8230601.385499822
708,0.0
2,1, 1,21, 0, 3,50.00,60.00,WinterDesignDay
8,-15.500002903810355
10,588883.2432939032
671,8271285.999612644
708,0.0
2,1, 1,21, 0, 3, 0.00,60.00,WinterDesignDay
357,11.776377805220596
397,17.999999999999998
437,18.00000000000001
477,17.999999999999998
517,18.000000000000005
557,18.000000000000005
2,1, 1,21, 0, 4, 0.00,10.00,WinterDesignDay
8,-15.500002903810355
10,588883.2432939032
671,8311537.086762744
708,0.0
2,1, 1,21, 0, 4,10.00,20.00,WinterDesignDay
8,-15.500002903810355
10,588883.2432939032
671,8351358.649919631
708,0.0
2,1, 1,21, 0, 4,20.00,30.00,WinterDesignDay
8,-15.500002903810355
10,588883.2432939032
671,8390753.572057745
708,0.0
2,1, 1,21, 0, 4,30.00,40.00,WinterDesignDay
8,-15.500002903810355
10,588883.2432939032
671,8429723.919629047
708,0.0
2,1, 1,21, 0, 4,40.00,50.00,WinterDesignDay
8,-15.500002903810355
10,588883.2432939032
671,8468271.182666421
708,0.0
2,1, 1,21, 0, 4,50.00,60.00,WinterDesignDay
8,-15.500002903810355
10,588883.2432939032
671,8506396.449007813
708,0.0
2,1, 1,21, 0, 4, 0.00,60.00,WinterDesignDay
357,11.602977403670991
397,17.999999999999998
437,17.999999999999994
477,17.99999999999999
517,17.999999999999976
557,17.999999999999998
2,1, 1,21, 0, 5, 0.00,10.00,WinterDesignDay
8,-15.500002903810355
10,588883.2432939032
671,8544100.539568112
708,0.0
2,1, 1,21, 0, 5,10.00,20.00,WinterDesignDay
8,-15.500002903810355
10,588883.2432939032
671,8581384.093247928
708,0.0
2,1, 1,21, 0, 5,20.00,30.00,WinterDesignDay
8,-15.500002903810355
10,588883.2432939032
671,8618247.63502765
708,0.0
2,1, 1,21, 0, 5,30.00,40.00,WinterDesignDay
8,-15.500002903810355
10,588883.2432939032
671,8654691.670380617
708,0.0
2,1, 1,21, 0, 5,40.00,50.00,WinterDesignDay
8,-15.500002903810355
10,588883.2432939032
671,8690716.833913846
708,0.0
2,1, 1,21, 0, 5,50.00,60.00,WinterDesignDay
8,-15.500002903810355
10,588883.2432939032
671,8726293.339237787
708,0.0
2,1, 1,21, 0, 5, 0.00,60.00,WinterDesignDay
357,11.443594493126924
397,18.000000000000005
437,17.999999999999984
477,17.999999999999998
517,18.00000000000001
557,17.99999999999999
2,1, 1,21, 0, 6, 0.00,10.00,WinterDesignDay
8,-15.500002903810355
10,588883.2432939032
671,8761488.157995303
708,0.0
2,1, 1,21, 0, 6,10.00,20.00,WinterDesignDay
8,-15.500002903810355
10,588883.2432939032
671,8796237.286299061
708,0.0
2,1, 1,21, 0, 6,20.00,30.00,WinterDesignDay
8,-15.500002903810355
10,588883.2432939032
671,8830570.791530163
708,0.0
2,1, 1,21, 0, 6,30.00,40.00,WinterDesignDay
8,-15.500002903810355
10,588883.2432939032
671,8864495.589484418
708,0.0
2,1, 1,21, 0, 6,40.00,50.00,WinterDesignDay
8,-15.500002903810355
10,588883.2432939032
671,8898007.754701725
708,0.0
2,1, 1,21, 0, 6,50.00,60.00,WinterDesignDay
8,-15.500002903810355
10,588883.2432939032
671,8931108.64894581
708,0.0
2,1, 1,21, 0, 6, 0.00,60.00,WinterDesignDay
357,11.298492241020455
397,18.0
437,17.999999999999998
477,18.000000000000015
517,17.999999999999987
557,18.000000000000005
2,1, 1,21, 0, 7, 0.00,10.00,WinterDesignDay
8,-15.500002903810355
10,588883.2432939032
671,16730298.494665113
708,0.0
2,1, 1,21, 0, 7,10.00,20.00,WinterDesignDay
8,-15.500002903810355
10,588883.2432939032
671,8910092.851636388
708,0.0
2,1, 1,21, 0, 7,20.00,30.00,WinterDesignDay
8,-15.500002903810355
10,588883.2432939032
671,14695490.836769827
708,0.0
2,1, 1,21, 0, 7,30.00,40.00,WinterDesignDay
8,-15.500002903810355
10,588883.2432939032
671,13025103.006997496
708,0.0
2,1, 1,21, 0, 7,40.00,50.00,WinterDesignDay
8,-15.500002903810355
10,588883.2432939032
671,12922611.285201736
708,0.0
2,1, 1,21, 0, 7,50.00,60.00,WinterDesignDay
8,-15.500002903810355
10,588883.2432939032
671,12812767.353634997
708,0.0
2,1, 1,21, 0, 7, 0.00,60.00,WinterDesignDay
357,11.173895650277667
397,20.02299934139791
437,20.007489686950323
477,20.007028670156399
517,20.007962660431386
557,20.006967097099396
2,1, 1,21, 0, 8, 0.00,10.00,WinterDesignDay
8,-15.500002903810355
10,1462359.638864261
671,20686832.120377065
708,0.0
2,1, 1,21, 0, 8,10.00,20.00,WinterDesignDay
8,-15.500002903810355
10,1462359.638864261
671,12916733.36692633
708,0.0
2,1, 1,21, 0, 8,20.00,30.00,WinterDesignDay
8,-15.500002903810355
10,1462359.638864261
671,18076812.390841336
708,0.0
2,1, 1,21, 0, 8,30.00,40.00,WinterDesignDay
8,-15.500002903810355
10,1462359.638864261
671,16421085.656031535
708,0.0
2,1, 1,21, 0, 8,40.00,50.00,WinterDesignDay
8,-15.500002903810355
10,1462359.638864261
671,16168536.489182847
708,0.0
2,1, 1,21, 0, 8,50.00,60.00,WinterDesignDay
8,-15.500002903810355
10,1462359.638864261
671,15957100.947918527
708,0.0
2,1, 1,21, 0, 8, 0.00,60.00,WinterDesignDay
357,11.125778120918453
397,22.008915030782274
437,22.00258702064075
477,22.001928004516459
517,22.003058332874276
557,22.001864542429858
2,1, 1,21, 0, 9, 0.00,10.00,WinterDesignDay
8,-15.500002903810355
10,4786172.030522507
671,13729084.185665684
708,0.0
2,1, 1,21, 0, 9,10.00,20.00,WinterDesignDay
8,-15.500002903810355
10,4786172.030522507
671,13391979.691511013
708,0.0
2,1, 1,21, 0, 9,20.00,30.00,WinterDesignDay