Program Version,EnergyPlus, Version 8.9.0-eba93e8e1b, YMD=2018.11.29 14:47
1,5,Environment Title[],Latitude[deg],Longitude[deg],Time Zone[],Elevation[m]
2,8,Day of Simulation[],Month[],Day of Month[],DST Indicator[1=yes 0=no],Hour[],StartMinute[],EndMinute[],DayType
3,5,Cumulative Day of Simulation[],Month[],Day of Month[],DST Indicator[1=yes 0=no],DayType  ! When Daily Report Variables Requested
4,2,Cumulative Days of Simulation[],Month[]  ! When Monthly Report Variables Requested
5,1,Cumulative Days of Simulation[] ! When Run Period Report Variables Requested
6,1,Calendar Year of Simulation[] ! When Annual Report Variables Requested
7,9,Environment,Site Outdoor Air Drybulb Temperature [C] !Monthly [Value,Min,Day,Hour,Minute,Max,Day,Hour,Minute]
8,1,Environment,Site Outdoor Air Wetbulb Temperature [C] !TimeStep
357,1,ATTIC ZN,Zone Air Temperature [C] !Hourly
358,7,ATTIC ZN,Zone Air Relative Humidity [%] !Daily [Value,Min,Hour,Minute,Max,Hour,Minute]
397,1,CORE_ZN ZN,Zone Air Temperature [C] !Hourly
398,7,CORE_ZN ZN,Zone Air Relative Humidity [%] !Daily [Value,Min,Hour,Minute,Max,Hour,Minute]
437,1,PERIMETER_ZN_1 ZN,Zone Air Temperature [C] !Hourly
438,7,PERIMETER_ZN_1 ZN,Zone Air Relative Humidity [%] !Daily [Value,Min,Hour,Minute,Max,Hour,Minute]
477,1,PERIMETER_ZN_2 ZN,Zone Air Temperature [C] !Hourly
478,7,PERIMETER_ZN_2 ZN,Zone Air Relative Humidity [%] !Daily [Value,Min,Hour,Minute,Max,Hour,Minute]
517,1,PERIMETER_ZN_3 ZN,Zone Air Temperature [C] !Hourly
518,7,PERIMETER_ZN_3 ZN,Zone Air Relative Humidity [%] !Daily [Value,Min,Hour,Minute,Max,Hour,Minute]
557,1,PERIMETER_ZN_4 ZN,Zone Air Temperature [C] !Hourly
558,7,PERIMETER_ZN_4 ZN,Zone Air Relative Humidity [%] !Daily [Value,Min,Hour,Minute,Max,Hour,Minute]
10,1,Electricity:Facility [J] !TimeStep
708,1,DistrictCooling:Facility [J] !TimeStep
671,1,DistrictHeating:Facility [J] !TimeStep
End of Data Dictionary
1,EDMONTON INTL AP ANN CLG .4% CONDNS DB=>MWB,  53.31,-113.58,  -7.00, 723.30
2,1, 7,21, 0, 1, 0.00,10.00,SummerDesignDay
8,14.408921504545056
10,588883.2432939032
671,0.0
708,0.0
2,1, 7,21, 0, 1,10.00,20.00,SummerDesignDay
8,14.363956333840566
10,588883.2432939032
671,0.0
708,0.0
2,1, 7,21, 0, 1,20.00,30.00,SummerDesignDay
8,14.318916788014189
10,588883.2432939032
671,0.0
708,0.0
2,1, 7,21, 0, 1,30.00,40.00,SummerDesignDay
8,14.273802755837496
10,588883.2432939032
671,0.0
708,0.0
2,1, 7,21, 0, 1,40.00,50.00,SummerDesignDay
8,14.228614054951587
10,588883.2432939032
671,0.0
708,0.0
2,1, 7,21, 0, 1,50.00,60.00,SummerDesignDay
8,14.183350324714694
10,588883.2432939032
671,0.0
708,0.0
2,1, 7,21, 0, 1, 0.00,60.00,SummerDesignDay
357,24.67916033781879
397,24.184402184110295
437,24.19104204200629
477,24.25779072511487
517,24.088040636793367
557,24.744434335141518
2,1, 7,21, 0, 2, 0.00,10.00,SummerDesignDay
8,14.153134718658599
10,588883.2432939032
671,0.0
708,0.0
2,1, 7,21, 0, 2,10.00,20.00,SummerDesignDay
8,14.122885717757236
10,588883.2432939032
671,0.0
708,0.0
2,1, 7,21, 0, 2,20.00,30.00,SummerDesignDay
8,14.092597500544113
10,588883.2432939032
671,0.0
708,0.0
2,1, 7,21, 0, 2,30.00,40.00,SummerDesignDay
8,14.062281266428409
10,588883.2432939032
671,0.0
708,0.0
2,1, 7,21, 0, 2,40.00,50.00,SummerDesignDay
8,14.031931527690617
10,588883.2432939032
671,0.0
708,0.0
2,1, 7,21, 0, 2,50.00,60.00,SummerDesignDay
8,14.001542516648158
10,588883.2432939032
671,0.0
708,0.0
2,1, 7,21, 0, 2, 0.00,60.00,SummerDesignDay
357,24.459148592107426
397,23.966349226627416
437,23.92828506389472
477,23.99686054177995
517,23.840517255987039
557,24.450311289906965
2,1, 7,21, 0, 3, 0.00,10.00,SummerDesignDay
8,13.978731556127439
10,588883.2432939032
671,0.0
708,0.0
2,1, 7,21, 0, 3,10.00,20.00,SummerDesignDay
8,13.95590132758737
10,588883.2432939032
671,0.0
708,0.0
2,1, 7,21, 0, 3,20.00,30.00,SummerDesignDay
8,13.93305210332818
10,588883.2432939032
671,0.0
708,0.0
2,1, 7,21, 0, 3,30.00,40.00,SummerDesignDay
8,13.910183929510893
10,588883.2432939032
671,0.0
708,0.0
2,1, 7,21, 0, 3,40.00,50.00,SummerDesignDay
8,13.887299512014089
10,588883.2432939032
671,0.0
708,0.0
2,1, 7,21, 0, 3,50.00,60.00,SummerDesignDay
8,13.864393099219983
10,588883.2432939032
671,0.0
708,0.0
2,1, 7,21, 0, 3, 0.00,60.00,SummerDesignDay
357,24.25346836089477
397,23.771589484809867
437,23.693365828946626
477,23.76248445703484
517,23.619596552446735
557,24.184006797941995
2,1, 7,21, 0, 4, 0.00,10.00,SummerDesignDay
8,13.841467737397938
10,588883.2432939032
671,0.0
708,0.0
2,1, 7,21, 0, 4,10.00,20.00,SummerDesignDay
8,13.818523144723767
10,588883.2432939032
671,0.0
708,0.0
2,1, 7,21, 0, 4,20.00,30.00,SummerDesignDay
8,13.795559255229476
10,588883.2432939032
671,0.0
708,0.0
2,1, 7,21, 0, 4,30.00,40.00,SummerDesignDay
8,13.772576325114985
10,588883.2432939032
671,0.0
708,0.0
2,1, 7,21, 0, 4,40.00,50.00,SummerDesignDay
8,13.749574066201042
10,588883.2432939032
671,0.0
708,0.0
2,1, 7,21, 0, 4,50.00,60.00,SummerDesignDay
8,13.726552713863889
10,588883.2432939032
671,0.0
708,0.0
2,1, 7,21, 0, 4, 0.00,60.00,SummerDesignDay
357,24.0542353234604
397,23.586760607576335
437,23.471608042309499
477,23.54089735225271
517,23.41059518444619
557,23.932343424441993
2,1, 7,21, 0, 5, 0.00,10.00,SummerDesignDay
8,13.711195251010303
10,588883.2432939032
671,0.0
708,0.0
2,1, 7,21, 0, 5,10.00,20.00,SummerDesignDay
8,13.695826455893389
10,588883.2432939032
671,0.0
708,0.0
2,1, 7,21, 0, 5,20.00,30.00,SummerDesignDay
8,13.680451907720404
10,588883.2432939032
671,0.0
708,0.0
2,1, 7,21, 0, 5,30.00,40.00,SummerDesignDay
8,13.665068584585312
10,588883.2432939032
671,0.0
708,0.0
2,1, 7,21, 0, 5,40.00,50.00,SummerDesignDay
8,13.649674187846486
10,588883.2432939032
671,0.0
708,0.0
2,1, 7,21, 0, 5,50.00,60.00,SummerDesignDay
8,13.634273810837755
10,588883.2432939032
671,0.0
708,0.0
2,1, 7,21, 0, 5, 0.00,60.00,SummerDesignDay
357,23.876823998428916
397,23.41034573178409
437,23.267215994546587
477,23.40031557766343
517,23.25098692054352
557,23.700116165736075
2,1, 7,21, 0, 6, 0.00,10.00,SummerDesignDay
8,13.649674187846486
10,588883.2432939032
671,0.0
708,0.0
2,1, 7,21, 0, 6,10.00,20.00,SummerDesignDay
8,13.665068584585312
10,588883.2432939032
671,0.0
708,0.0
2,1, 7,21, 0, 6,20.00,30.00,SummerDesignDay
8,13.680451907720404
10,588883.2432939032
671,0.0
708,0.0
2,1, 7,21, 0, 6,30.00,40.00,SummerDesignDay
8,13.695826455893389
10,588883.2432939032
671,0.0
708,0.0
2,1, 7,21, 0, 6,40.00,50.00,SummerDesignDay
8,13.711195251010303
10,588883.2432939032
671,0.0
708,0.0
2,1, 7,21, 0, 6,50.00,60.00,SummerDesignDay
8,13.726552713863889
10,588883.2432939032
671,0.0
708,0.0
2,1, 7,21, 0, 6, 0.00,60.00,SummerDesignDay
357,23.944055188523476
397,23.353718408730889
437,23.225918586333834
477,24.41450382998504
517,23.522328386381216
557,23.628022345464477
2,1, 7,21, 0, 7, 0.00,10.00,SummerDesignDay
8,13.78024039805344
10,588883.2432939032
671,0.0
708,1035848.7979535771
2,1, 7,21, 0, 7,10.00,20.00,SummerDesignDay
8,13.833820754314865
10,588883.2432939032
671,0.0
708,329243.8756513609
2,1, 7,21, 0, 7,20.00,30.00,SummerDesignDay
8,13.887299512014089
10,588883.2432939032
671,0.0
708,1125462.7410084438
2,1, 7,21, 0, 7,30.00,40.00,SummerDesignDay
8,13.940674335544428
10,588883.2432939032
671,0.0
708,1049708.0593633624
2,1, 7,21, 0, 7,40.00,50.00,SummerDesignDay
8,13.993942850183995
10,588883.2432939032
671,0.0
708,1088218.146715953
2,1, 7,21, 0, 7,50.00,60.00,SummerDesignDay
8,14.047107922751703
10,588883.2432939032
671,0.0
708,1118254.5676426138
2,1, 7,21, 0, 7, 0.00,60.00,SummerDesignDay
357,24.243937649396757
397,23.4774339404099
437,23.414952787672104
477,23.99092160846507
517,23.70808156923344
557,23.71435247692696
2,1, 7,21, 0, 8, 0.00,10.00,SummerDesignDay
8,14.175801016944173
10,1462359.638864261
671,0.0
708,1226747.07475356
2,1, 7,21, 0, 8,10.00,20.00,SummerDesignDay
8,14.30389081517423
10,1462359.638864261
671,0.0
708,1297482.3873883472
2,1, 7,21, 0, 8,20.00,30.00,SummerDesignDay
8,14.431376572089834
10,1462359.638864261
671,0.0
708,1580099.1232199306
2,1, 7,21, 0, 8,30.00,40.00,SummerDesignDay
8,14.558273322375906
10,1462359.638864261
671,0.0
708,1837921.3264058394
2,1, 7,21, 0, 8,40.00,50.00,SummerDesignDay
8,14.684579977889073
10,1462359.638864261
671,0.0
708,1904190.9567046848
2,1, 7,21, 0, 8,50.00,60.00,SummerDesignDay
8,14.810295691904573
10,1462359.638864261
671,0.0
708,2082033.6839011315
2,1, 7,21, 0, 8, 0.00,60.00,SummerDesignDay
357,24.754207899200919
397,23.915333949531108
437,23.91730254378005
477,23.99999999943597
517,23.973230956123684
557,23.97813827814799
2,1, 7,21, 0, 9, 0.00,10.00,SummerDesignDay
8,14.950121243610284
10,4786172.030522507
671,0.0
708,4840604.704650715
2,1, 7,21, 0, 9,10.00,20.00,SummerDesignDay
8,15.089221146567488
10,4786172.030522507
671,0.0
708,5263756.37411983
2,1, 7,21, 0, 9,20.00,30.00,SummerDesignDay
8,15.227606891008949
10,4786172.030522507
671,0.0
708,5543679.833004921
2,1, 7,21, 0, 9,30.00,40.00,SummerDesignDay
8,15.365289776245018
10,4786172.030522507
671,0.0
708,5795253.225622633
2,1, 7,21, 0, 9,40.00,50.00,SummerDesignDay
8,15.502264377040474
10,4786172.030522507
671,0.0
708,6018204.5720866289
2,1, 7,21, 0, 9,50.00,60.00,SummerDesignDay
8,15.638542321600605
10,4786172.030522507
671,0.0
708,6221107.855888494
2,1, 7,21, 0, 9, 0.00,60.00,SummerDesignDay
357,25.437417408211457
397,23.999999985081407
437,23.99999999620475
477,24.00000000000003
517,23.999999999887348
557,23.999999999949137
2,1, 7,21, 0,10, 0.00,10.00,SummerDesignDay
8,15.759892319294759
10,5384443.534337821
671,0.0
708,6993984.363703738
2,1, 7,21, 0,10,10.00,20.00,SummerDesignDay
8,15.880693229880889
10,5384443.534337821
671,0.0
708,7154079.053002479
2,1, 7,21, 0,10,20.00,30.00,SummerDesignDay
8,16.000943860531654
10,5384443.534337821
671,0.0
708,7271712.836503813
2,1, 7,21, 0,10,30.00,40.00,SummerDesignDay
8,16.120658125095784
10,5384443.534337821
671,0.0
708,7377840.226826168
2,1, 7,21, 0,10,40.00,50.00,SummerDesignDay
8,16.23983443184199
10,5384443.534337821
671,0.0
708,7446321.190169478
2,1, 7,21, 0,10,50.00,60.00,SummerDesignDay
8,16.358472940285755
10,5384443.534337821
671,0.0
708,7501889.679719544
2,1, 7,21, 0,10, 0.00,60.00,SummerDesignDay
357,26.214849890405657
397,23.99999999999999
437,24.000000000000026
477,24.000000000000026
517,24.00000000000001
557,24.000000000000069
2,1, 7,21, 0,11, 0.00,10.00,SummerDesignDay
8,16.462716623198927
10,5384443.534337821
671,0.0
708,7544572.71599954
2,1, 7,21, 0,11,10.00,20.00,SummerDesignDay
8,16.566550955696245
10,5384443.534337821
671,0.0
708,7583539.218488969
2,1, 7,21, 0,11,20.00,30.00,SummerDesignDay
8,16.66997846079155
10,5384443.534337821
671,0.0
708,7623952.684079536
2,1, 7,21, 0,11,30.00,40.00,SummerDesignDay
8,16.7730012676781
10,5384443.534337821
671,0.0
708,7667005.49804823
2,1, 7,21, 0,11,40.00,50.00,SummerDesignDay
8,16.875622130186476
10,5384443.534337821
671,0.0
708,7715359.226147207
2,1, 7,21, 0,11,50.00,60.00,SummerDesignDay
8,16.97784413118777
10,5384443.534337821
671,0.0
708,7771747.1501415879
2,1, 7,21, 0,11, 0.00,60.00,SummerDesignDay
357,26.928372936827587
397,24.000000000000047
437,24.000000000000033
477,24.000000000000069
517,24.0
557,24.000000000000015
2,1, 7,21, 0,12, 0.00,10.00,SummerDesignDay
8,17.045774844894369
10,5384443.534337821
671,0.0
708,7818569.467900951
2,1, 7,21, 0,12,10.00,20.00,SummerDesignDay
8,17.11352484602356
10,5384443.534337821
671,0.0
708,7875361.452414335
2,1, 7,21, 0,12,20.00,30.00,SummerDesignDay
8,17.181099778884684
10,5384443.534337821
671,0.0
708,7943225.201686761
2,1, 7,21, 0,12,30.00,40.00,SummerDesignDay
8,17.248505827268955
10,5384443.534337821
671,0.0
708,8021823.7193905529
2,1, 7,21, 0,12,40.00,50.00,SummerDesignDay
8,17.315733840182703
10,5384443.534337821
671,0.0
708,8112900.644582991
2,1, 7,21, 0,12,50.00,60.00,SummerDesignDay
8,17.382788731949537
10,5384443.534337821
671,0.0
708,8211366.661704295
2,1, 7,21, 0,12, 0.00,60.00,SummerDesignDay
357,27.506090571270759
397,23.999999999999984
437,24.00000000000004
477,23.999999999999998
517,24.0
557,24.000000000000015
2,1, 7,21, 0,13, 0.00,10.00,SummerDesignDay
8,17.4363122345863
10,5384443.534337821
671,0.0
708,7932861.97373171
2,1, 7,21, 0,13,10.00,20.00,SummerDesignDay
8,17.489726041629873
10,5384443.534337821
671,0.0
708,7973933.933734884
2,1, 7,21, 0,13,20.00,30.00,SummerDesignDay
8,17.543025588328598
10,5384443.534337821
671,0.0
708,8002906.589916794
2,1, 7,21, 0,13,30.00,40.00,SummerDesignDay
8,17.59622068620083
10,5384443.534337821
671,0.0
708,8033764.495601946
2,1, 7,21, 0,13,40.00,50.00,SummerDesignDay
8,17.649308254383418
10,5384443.534337821
671,0.0
708,8071909.126378882
2,1, 7,21, 0,13,50.00,60.00,SummerDesignDay
8,17.70228170270765
10,5384443.534337821
671,0.0
708,8114654.712709073
2,1, 7,21, 0,13, 0.00,60.00,SummerDesignDay
357,27.925148485772167
397,24.000000000000015
437,23.999999999999984
477,24.0
517,24.00000000000004
557,24.00000000000003
2,1, 7,21, 0,14, 0.00,10.00,SummerDesignDay
8,17.735339409697159
10,5384443.534337821
671,0.0
708,8146131.276195252
2,1, 7,21, 0,14,10.00,20.00,SummerDesignDay
8,17.76835485245733
10,5384443.534337821
671,0.0
708,8175078.443525496
2,1, 7,21, 0,14,20.00,30.00,SummerDesignDay
8,17.80132395083002
10,5384443.534337821
671,0.0
708,8199678.091442773
2,1, 7,21, 0,14,30.00,40.00,SummerDesignDay
8,17.83425598398755
10,5384443.534337821
671,0.0
708,8221126.161801834
2,1, 7,21, 0,14,40.00,50.00,SummerDesignDay
8,17.867145969102244
10,5384443.534337821
671,0.0
708,8250150.335071134
2,1, 7,21, 0,14,50.00,60.00,SummerDesignDay
8,17.89998955880744
10,5384443.534337821
671,0.0
708,8292103.44285565
2,1, 7,21, 0,14, 0.00,60.00,SummerDesignDay
357,28.200214797808586
397,24.000000000000047
437,24.000000000000026
477,23.999999999999984
517,24.000000000000026
557,24.000000000000019
2,1, 7,21, 0,15, 0.00,10.00,SummerDesignDay
8,17.89998955880744
10,5384443.534337821
671,0.0
708,8675268.239668493
2,1, 7,21, 0,15,10.00,20.00,SummerDesignDay
8,17.89998955880744
10,5384443.534337821
671,0.0
708,8773987.03827526
2,1, 7,21, 0,15,20.00,30.00,SummerDesignDay
8,17.89998955880744
10,5384443.534337821
671,0.0
708,8893839.671018364
2,1, 7,21, 0,15,30.00,40.00,SummerDesignDay
8,17.89998955880744
10,5384443.534337821
671,0.0
708,9014705.26237604
2,1, 7,21, 0,15,40.00,50.00,SummerDesignDay
8,17.89998955880744
10,5384443.534337821
671,0.0
708,9127393.336069193
2,1, 7,21, 0,15,50.00,60.00,SummerDesignDay
8,17.89998955880744
10,5384443.534337821
671,0.0
708,9231770.16181443
2,1, 7,21, 0,15, 0.00,60.00,SummerDesignDay
357,28.317934426509067
397,24.000000000000015
437,24.000000000000019
477,24.00000000000007
517,24.000000000000044
557,24.00000000000004
2,1, 7,21, 0,16, 0.00,10.00,SummerDesignDay
8,17.860568207889693
10,5384443.534337821
671,0.0
708,9305536.524608687
2,1, 7,21, 0,16,10.00,20.00,SummerDesignDay
8,17.821087195457694
10,5384443.534337821
671,0.0
708,9372311.49568943
2,1, 7,21, 0,16,20.00,30.00,SummerDesignDay
8,17.781546005513165
10,5384443.534337821
671,0.0
708,9433414.13322834
2,1, 7,21, 0,16,30.00,40.00,SummerDesignDay
8,17.741944344507937
10,5384443.534337821
671,0.0
708,9485566.237217989
2,1, 7,21, 0,16,40.00,50.00,SummerDesignDay
8,17.70228170270765
10,5384443.534337821
671,0.0
708,9516740.028478712
2,1, 7,21, 0,16,50.00,60.00,SummerDesignDay
8,17.66255919312062
10,5384443.534337821
671,0.0
708,9538846.051080635
2,1, 7,21, 0,16, 0.00,60.00,SummerDesignDay
357,28.26138755555239
397,24.00000000000003
437,24.000000000000058
477,24.000000000000058
517,24.00000000000003
557,24.000000000000087
2,1, 7,21, 0,17, 0.00,10.00,SummerDesignDay
8,17.609504062474934
10,5384443.534337821
671,0.0
708,9544274.485773132
2,1, 7,21, 0,17,10.00,20.00,SummerDesignDay
8,17.55633553044059
10,5384443.534337821
671,0.0
708,9543743.025412621
2,1, 7,21, 0,17,20.00,30.00,SummerDesignDay
8,17.503058322036386
10,5384443.534337821
671,0.0
708,9538946.101412276
2,1, 7,21, 0,17,30.00,40.00,SummerDesignDay
8,17.44967746622602
10,5384443.534337821
671,0.0
708,9530000.878266193
2,1, 7,21, 0,17,40.00,50.00,SummerDesignDay
8,17.396181268445479
10,5384443.534337821
671,0.0
708,9518890.501136899
2,1, 7,21, 0,17,50.00,60.00,SummerDesignDay
8,17.34257573518993
10,5384443.534337821
671,0.0
708,9506674.699386036
2,1, 7,21, 0,17, 0.00,60.00,SummerDesignDay
357,28.03345849982153
397,24.00000000000004
437,24.000000000000055
477,24.000000000000019
517,24.0
557,24.000000000000076
2,1, 7,21, 0,18, 0.00,10.00,SummerDesignDay
8,17.27541672792129
10,5016276.455066859
671,0.0
708,9139611.391963918
2,1, 7,21, 0,18,10.00,20.00,SummerDesignDay
8,17.20808504250612
10,5016276.455066859
671,0.0
708,9067979.76176332
2,1, 7,21, 0,18,20.00,30.00,SummerDesignDay
8,17.14057454221269
10,5016276.455066859
671,0.0
708,9000719.943853962
2,1, 7,21, 0,18,30.00,40.00,SummerDesignDay
8,17.072894901477484
10,5016276.455066859
671,0.0
708,8929197.290633405
2,1, 7,21, 0,18,40.00,50.00,SummerDesignDay
8,17.00503937009805
10,5016276.455066859
671,0.0
708,8843855.730930755
2,1, 7,21, 0,18,50.00,60.00,SummerDesignDay
8,16.937003238056929
10,5016276.455066859
671,0.0
708,8764624.460763343
2,1, 7,21, 0,18, 0.00,60.00,SummerDesignDay
357,27.657411872973744
397,24.0
437,24.000000000000058
477,24.000000000000015
517,24.0
557,24.000000000000033
2,1, 7,21, 0,19, 0.00,10.00,SummerDesignDay
8,16.834621823952899
10,2991357.519076566
671,0.0
708,7246027.359482842
2,1, 7,21, 0,19,10.00,20.00,SummerDesignDay
8,16.731840597095546
10,2991357.519076566
671,0.0
708,7014496.722824251
2,1, 7,21, 0,19,20.00,30.00,SummerDesignDay
8,16.628656510094389
10,2991357.519076566
671,0.0
708,6836495.8444183249
2,1, 7,21, 0,19,30.00,40.00,SummerDesignDay
8,16.52506631093024
10,2991357.519076566
671,0.0
708,6677558.3774710339
2,1, 7,21, 0,19,40.00,50.00,SummerDesignDay
8,16.421068679567168
10,2991357.519076566
671,0.0
708,6535303.176094678
2,1, 7,21, 0,19,50.00,60.00,SummerDesignDay
8,16.316660126006189
10,2991357.519076566
671,0.0
708,6403608.166177139
2,1, 7,21, 0,19, 0.00,60.00,SummerDesignDay
357,27.12264434657025
397,24.00000000000004
437,23.999999999999976
477,24.000000000000019
517,24.000000000000026
557,24.00000000000006
2,1, 7,21, 0,20, 0.00,10.00,SummerDesignDay
8,16.23983443184199
10,1462359.638864261
671,0.0
708,5380603.349731785
2,1, 7,21, 0,20,10.00,20.00,SummerDesignDay
8,16.16278109476159
10,1462359.638864261
671,0.0
708,5173375.71446562
2,1, 7,21, 0,20,20.00,30.00,SummerDesignDay
8,16.08550223037326
10,1462359.638864261
671,0.0
708,4996855.86126383
2,1, 7,21, 0,20,30.00,40.00,SummerDesignDay
8,16.00800423259966
10,1462359.638864261
671,0.0
708,4823916.662370786
2,1, 7,21, 0,20,40.00,50.00,SummerDesignDay
8,15.93027362002692
10,1462359.638864261
671,0.0
708,4648122.460358163
2,1, 7,21, 0,20,50.00,60.00,SummerDesignDay
8,15.852315674932763
10,1462359.638864261
671,0.0
708,4462621.194572061
2,1, 7,21, 0,20, 0.00,60.00,SummerDesignDay
357,26.49766952879912
397,24.000000000000019
437,24.00000000000001
477,24.00000000000001
517,24.000000000000019
557,23.99999999999999
2,1, 7,21, 0,21, 0.00,10.00,SummerDesignDay
8,15.788363192404085
10,1462359.638864261
671,0.0
708,4267661.403457888
2,1, 7,21, 0,21,10.00,20.00,SummerDesignDay
8,15.724257172716296
10,1462359.638864261
671,0.0
708,4049497.8377916349
2,1, 7,21, 0,21,20.00,30.00,SummerDesignDay
8,15.659996790990642
10,1462359.638864261
671,0.0
708,3807388.7434393258
2,1, 7,21, 0,21,30.00,40.00,SummerDesignDay
8,15.595581535815035
10,1462359.638864261
671,0.0
708,3561934.8162297636
2,1, 7,21, 0,21,40.00,50.00,SummerDesignDay
8,15.531010778608508
10,1462359.638864261
671,0.0
708,3314209.3864432435
2,1, 7,21, 0,21,50.00,60.00,SummerDesignDay
8,15.466284010175432
10,1462359.638864261
671,0.0
708,3127176.53731693
2,1, 7,21, 0,21, 0.00,60.00,SummerDesignDay
357,25.899710070237388
397,24.00000000000001
437,24.000000000000015
477,24.00000000000001
517,24.000000000000015
557,24.000000000000015
2,1, 7,21, 0,22, 0.00,10.00,SummerDesignDay
8,15.401400391031143
10,717557.6374991046
671,0.0
708,0.0
2,1, 7,21, 0,22,10.00,20.00,SummerDesignDay
8,15.33635955620899
10,717557.6374991046
671,0.0
708,0.0
2,1, 7,21, 0,22,20.00,30.00,SummerDesignDay
8,15.271160868662271
10,717557.6374991046
671,0.0
708,0.0
2,1, 7,21, 0,22,30.00,40.00,SummerDesignDay
8,15.205803751049473
10,717557.6374991046
671,0.0
708,0.0
2,1, 7,21, 0,22,40.00,50.00,SummerDesignDay
8,15.140287170056565
10,717557.6374991046
671,0.0
708,0.0
2,1, 7,21, 0,22,50.00,60.00,SummerDesignDay
8,15.074611000243042
10,717557.6374991046
671,0.0
708,0.0
2,1, 7,21, 0,22, 0.00,60.00,SummerDesignDay
357,25.453356621694323
397,24.614289836398045
437,24.735721317706959
477,24.77861306811596
517,24.6565440028111
557,25.255433388026466
2,1, 7,21, 0,23, 0.00,10.00,SummerDesignDay
8,15.023420228078102
10,717557.6374991046
671,0.0
708,0.0
2,1, 7,21, 0,23,10.00,20.00,SummerDesignDay
8,14.972132426857695
10,717557.6374991046
671,0.0
708,0.0
2,1, 7,21, 0,23,20.00,30.00,SummerDesignDay
8,14.920741525635572
10,717557.6374991046
671,0.0
708,0.0
2,1, 7,21, 0,23,30.00,40.00,SummerDesignDay
8,14.869258065653357
10,717557.6374991046
671,0.0
708,0.0
2,1, 7,21, 0,23,40.00,50.00,SummerDesignDay
8,14.817676172580706
10,717557.6374991046
671,0.0
708,0.0
2,1, 7,21, 0,23,50.00,60.00,SummerDesignDay
8,14.765990692483252
10,717557.6374991046
671,0.0
708,0.0
2,1, 7,21, 0,23, 0.00,60.00,SummerDesignDay
357,25.14881492312789
397,24.72413730663534
437,24.80749566534398
477,24.857963760767168
517,24.685374838521328
557,25.412414839139897
2,1, 7,21, 0,24, 0.00,10.00,SummerDesignDay
8,14.714211508387555
10,588883.2432939032
671,0.0
708,0.0
2,1, 7,21, 0,24,10.00,20.00,SummerDesignDay
8,14.662333465801618
10,588883.2432939032
671,0.0
708,0.0
2,1, 7,21, 0,24,20.00,30.00,SummerDesignDay
8,14.61035058411449
10,588883.2432939032
671,0.0
708,0.0
2,1, 7,21, 0,24,30.00,40.00,SummerDesignDay
8,14.558273322375906
10,588883.2432939032
671,0.0
708,0.0
2,1, 7,21, 0,24,40.00,50.00,SummerDesignDay
8,14.506095721461503
10,588883.2432939032
671,0.0
708,0.0
2,1, 7,21, 0,24,50.00,60.00,SummerDesignDay
8,14.453812760328488
10,588883.2432939032
671,0.0
708,0.0
2,1, 7,21, 0,24, 0.00,60.00,SummerDesignDay
357,24.9133917504948
397,24.44400806870398
437,24.49288821619974
477,24.55537529775766
517,24.376031013095035
557,25.075416799751016
3,1, 7,21, 0,SummerDesignDay
358,43.69436425600535,37.92095461261621,15,50,49.432860438073827, 5,50
398,44.469377058182519,38.898691964105129,22,10,50.84350307377065, 6,20
438,43.99231545965785,38.62992439497629,22,13,51.30816197894349, 6,20
478,42.52468085856786,38.49979915609204, 8,60,50.82105629883229, 5,40
518,44.25859669087904,38.70777359342941,22,10,51.21024396546529, 5,40
558,43.2687892818494,36.96839122165578,22,13,50.03963608525045, 6,20
4,1, 7
7,21.096875,15.3,21, 5,60,27.8,21,14,60
1,EDMONTON INTL AP ANN HTG 99.6% CONDNS DB,  53.31,-113.58,  -7.00, 723.30
2,1, 1,21, 0, 1, 0.00,10.00,WinterDesignDay
8,-32.6
10,588883.2432939032
671,10681536.436142864
708,0.0
2,1, 1,21, 0, 1,10.00,20.00,WinterDesignDay
8,-32.6
10,588883.2432939032
671,10741650.228732534
708,0.0
2,1, 1,21, 0, 1,20.00,30.00,WinterDesignDay
8,-32.6
10,588883.2432939032
671,10799707.315674648
708,0.0
2,1, 1,21, 0, 1,30.00,40.00,WinterDesignDay
8,-32.6
10,588883.2432939032
671,10856025.733088956
708,0.0
2,1, 1,21, 0, 1,40.00,50.00,WinterDesignDay
8,-32.6
10,588883.2432939032
671,10910858.7747407
708,0.0
2,1, 1,21, 0, 1,50.00,60.00,WinterDesignDay
8,-32.6
10,588883.2432939032
671,10964407.823759241
708,0.0
2,1, 1,21, 0, 1, 0.00,60.00,WinterDesignDay
357,11.515884349555478
397,18.0
437,18.000000000000033
477,17.999999999999984
517,18.00000000000001
557,18.00000000000004
2,1, 1,21, 0, 2, 0.00,10.00,WinterDesignDay
8,-32.6
10,588883.2432939032
671,11016834.016222913
708,0.0
2,1, 1,21, 0, 2,10.00,20.00,WinterDesignDay
8,-32.6
10,588883.2432939032
671,11068263.76432836
708,0.0
2,1, 1,21, 0, 2,20.00,30.00,WinterDesignDay
8,-32.6
10,588883.2432939032
671,11118795.93689219
708,0.0
2,1, 1,21, 0, 2,30.00,40.00,WinterDesignDay
8,-32.6
10,588883.2432939032
671,11168509.90086509
708,0.0
2,1, 1,21, 0, 2,40.00,50.00,WinterDesignDay
8,-32.6
10,588883.2432939032
671,11217468.369568035
708,0.0
2,1, 1,21, 0, 2,50.00,60.00,WinterDesignDay
8,-32.6
10,588883.2432939032
671,11265720.876149759
708,0.0
2,1, 1,21, 0, 2, 0.00,60.00,WinterDesignDay
357,11.300980705175825
397,17.999999999999994
437,18.000000000000005
477,17.99999999999999
517,18.00000000000001
557,18.00000000000001
2,1, 1,21, 0, 3, 0.00,10.00,WinterDesignDay
8,-32.6
10,588883.2432939032
671,11313306.547958132
708,0.0
2,1, 1,21, 0, 3,10.00,20.00,WinterDesignDay
8,-32.6
10,588883.2432939032
671,11360256.318633892
708,0.0
2,1, 1,21, 0, 3,20.00,30.00,WinterDesignDay
8,-32.6
10,588883.2432939032
671,11406594.688696495
708,0.0
2,1, 1,21, 0, 3,30.00,40.00,WinterDesignDay
8,-32.6
10,588883.2432939032
671,11452341.124339559
708,0.0
2,1, 1,21, 0, 3,40.00,50.00,WinterDesignDay
8,-32.6
10,588883.2432939032
671,11497511.166912277
708,0.0
2,1, 1,21, 0, 3,50.00,60.00,WinterDesignDay
8,-32.6
10,588883.2432939032
671,11542117.311412089
708,0.0
2,1, 1,21, 0, 3, 0.00,60.00,WinterDesignDay
357,11.101433666554377
397,17.999999999999998
437,17.99999999999997
477,18.000000000000008
517,17.999999999999984
557,18.000000000000047
2,1, 1,21, 0, 4, 0.00,10.00,WinterDesignDay
8,-32.6
10,588883.2432939032
671,11586169.700822246
708,0.0
2,1, 1,21, 0, 4,10.00,20.00,WinterDesignDay
8,-32.6
10,588883.2432939032
671,11629676.67379837
708,0.0
2,1, 1,21, 0, 4,20.00,30.00,WinterDesignDay
8,-32.6
10,588883.2432939032
671,11672645.195722413
708,0.0
2,1, 1,21, 0, 4,30.00,40.00,WinterDesignDay
8,-32.6
10,588883.2432939032
671,11715081.197093016
708,0.0
2,1, 1,21, 0, 4,40.00,50.00,WinterDesignDay
8,-32.6
10,588883.2432939032
671,11756989.838404324
708,0.0
2,1, 1,21, 0, 4,50.00,60.00,WinterDesignDay
8,-32.6
10,588883.2432939032
671,11798375.716765795
708,0.0
2,1, 1,21, 0, 4, 0.00,60.00,WinterDesignDay
357,10.917547589624095
397,17.999999999999998
437,18.00000000000002
477,18.000000000000008
517,18.000000000000008
557,18.00000000000005
2,1, 1,21, 0, 5, 0.00,10.00,WinterDesignDay
8,-32.6
10,588883.2432939032
671,11839208.821441336
708,0.0
2,1, 1,21, 0, 5,10.00,20.00,WinterDesignDay
8,-32.6
10,588883.2432939032
671,11879567.74319067
708,0.0
2,1, 1,21, 0, 5,20.00,30.00,WinterDesignDay
8,-32.6
10,588883.2432939032
671,11919382.786868347
708,0.0
2,1, 1,21, 0, 5,30.00,40.00,WinterDesignDay
8,-32.6
10,588883.2432939032
671,11958690.493819539
708,0.0
2,1, 1,21, 0, 5,40.00,50.00,WinterDesignDay
8,-32.6
10,588883.2432939032
671,11997500.547061824
708,0.0
2,1, 1,21, 0, 5,50.00,60.00,WinterDesignDay
8,-32.6
10,588883.2432939032
671,12035810.362089975
708,0.0
2,1, 1,21, 0, 5, 0.00,60.00,WinterDesignDay
357,10.74952125602813
397,17.999999999999998
437,18.000000000000069
477,18.000000000000005
517,18.000000000000015
557,18.000000000000044
2,1, 1,21, 0, 6, 0.00,10.00,WinterDesignDay
8,-32.6
10,588883.2432939032
671,12073623.209408883
708,0.0
2,1, 1,21, 0, 6,10.00,20.00,WinterDesignDay
8,-32.6
10,588883.2432939032
671,12110942.611848215
708,0.0
2,1, 1,21, 0, 6,20.00,30.00,WinterDesignDay
8,-32.6
10,588883.2432939032
671,12147772.350229886
708,0.0
2,1, 1,21, 0, 6,30.00,40.00,WinterDesignDay
8,-32.6
10,588883.2432939032
671,12184116.337082975
708,0.0
2,1, 1,21, 0, 6,40.00,50.00,WinterDesignDay
8,-32.6
10,588883.2432939032
671,12219978.53664995
708,0.0
2,1, 1,21, 0, 6,50.00,60.00,WinterDesignDay
8,-32.6
10,588883.2432939032
671,12255362.943342274
708,0.0
2,1, 1,21, 0, 6, 0.00,60.00,WinterDesignDay
357,10.595294043267435
397,17.99999999999999
437,18.000000000000015
477,18.000000000000026
517,18.00000000000002
557,18.000000000000008
2,1, 1,21, 0, 7, 0.00,10.00,WinterDesignDay
8,-32.6
10,588883.2432939032
671,19955918.350004984
708,0.0
2,1, 1,21, 0, 7,10.00,20.00,WinterDesignDay
8,-32.6
10,588883.2432939032
671,12922276.629914122
708,0.0
2,1, 1,21, 0, 7,20.00,30.00,WinterDesignDay
8,-32.6
10,588883.2432939032
671,17958706.580398315
708,0.0
2,1, 1,21, 0, 7,30.00,40.00,WinterDesignDay
8,-32.6
10,588883.2432939032
671,16499898.247240965
708,0.0
2,1, 1,21, 0, 7,40.00,50.00,WinterDesignDay
8,-32.6
10,588883.2432939032
671,16356722.908665535
708,0.0
2,1, 1,21, 0, 7,50.00,60.00,WinterDesignDay
8,-32.6
10,588883.2432939032
671,16237138.898626499
708,0.0
2,1, 1,21, 0, 7, 0.00,60.00,WinterDesignDay
357,10.462149944411435
397,20.01030704414023
437,20.002484344250456
477,20.001974921302197
517,20.003176634195488
557,20.001974921302219
2,1, 1,21, 0, 8, 0.00,10.00,WinterDesignDay
8,-32.6
10,1462359.638864261
671,23923129.21564424
708,0.0
2,1, 1,21, 0, 8,10.00,20.00,WinterDesignDay
8,-32.6
10,1462359.638864261
671,16855950.596365278
708,0.0
2,1, 1,21, 0, 8,20.00,30.00,WinterDesignDay
8,-32.6
10,1462359.638864261
671,21402566.462875114
708,0.0
2,1, 1,21, 0, 8,30.00,40.00,WinterDesignDay
8,-32.6
10,1462359.638864261
671,19902437.76397893
708,0.0
2,1, 1,21, 0, 8,40.00,50.00,WinterDesignDay
8,-32.6
10,1462359.638864261
671,19617604.40412816
708,0.0
2,1, 1,21, 0, 8,50.00,60.00,WinterDesignDay
8,-32.6
10,1462359.638864261
671,19394949.282987369
708,0.0
2,1, 1,21, 0, 8, 0.00,60.00,WinterDesignDay
357,10.412643076748923
397,22.004731138073145
437,21.99731381753881
477,21.996578175979108
517,21.998038151247444
557,21.996578175979086
2,1, 1,21, 0, 9, 0.00,10.00,WinterDesignDay
8,-32.6
10,4786172.030522507
671,17149416.8684111
708,0.0
2,1, 1,21, 0, 9,10.00,20.00,WinterDesignDay
8,-32.6
10,4786172.030522507
671,16799787.610042044
708,0.0
2,1, 1,21, 0, 9,20.00,30.00,WinterDesignDay
8,-32.6
10,4786172.030522507
671,16563768.59568436
708,0.0
2,1, 1,21, 0, 9,30.00,40.00,WinterDesignDay
8,-32.6
10,4786172.030522507
671,16369270.33457483
708,0.0
2,1, 1,21, 0, 9,40.00,50.00,WinterDesignDay
8,-32.6
10,4786172.030522507
671,16207768.583459024
708,0.0
2,1, 1,21, 0, 9,50.00,60.00,WinterDesignDay
8,-32.6
10,4786172.030522507
671,16069201.419736816
708,0.0
2,1, 1,21, 0, 9, 0.00,60.00,WinterDesignDay
357,10.505811049001647
397,22.000000000000033
437,22.000000000000005
477,21.99999999999999
517,22.00000000000001
557,22.000000000000026
2,1, 1,21, 0,10, 0.00,10.00,WinterDesignDay
8,-32.6
10,5384443.534337821
671,15490634.72971837
708,0.0