Program Version,EnergyPlus, Version 8.9.0-497bb3e71c, YMD=2018.06.14 14:53
1,5,Environment Title[],Latitude[deg],Longitude[deg],Time Zone[],Elevation[m]
2,8,Day of Simulation[],Month[],Day of Month[],DST Indicator[1=yes 0=no],Hour[],StartMinute[],EndMinute[],DayType
3,5,Cumulative Day of Simulation[],Month[],Day of Month[],DST Indicator[1=yes 0=no],DayType  ! When Daily Report Variables Requested
4,2,Cumulative Days of Simulation[],Month[]  ! When Monthly Report Variables Requested
5,1,Cumulative Days of Simulation[] ! When Run Period Report Variables Requested
6,1,Calendar Year of Simulation[] ! When Annual Report Variables Requested
7,9,Environment,Site Outdoor Air Drybulb Temperature [C] !Monthly [Value,Min,Day,Hour,Minute,Max,Day,Hour,Minute]
8,1,Environment,Site Outdoor Air Wetbulb Temperature [C] !TimeStep
243,1,ATTIC ZN,Zone Air Temperature [C] !Hourly
244,7,ATTIC ZN,Zone Air Relative Humidity [%] !Daily [Value,Min,Hour,Minute,Max,Hour,Minute]
283,1,DINING ZN,Zone Air Temperature [C] !Hourly
284,7,DINING ZN,Zone Air Relative Humidity [%] !Daily [Value,Min,Hour,Minute,Max,Hour,Minute]
323,1,KITCHEN ZN,Zone Air Temperature [C] !Hourly
324,7,KITCHEN ZN,Zone Air Relative Humidity [%] !Daily [Value,Min,Hour,Minute,Max,Hour,Minute]
10,1,Electricity:Facility [J] !TimeStep
474,1,DistrictCooling:Facility [J] !TimeStep
437,1,DistrictHeating:Facility [J] !TimeStep
End of Data Dictionary
1,BANFF CS ANN CLG .4% CONDNS DB=>MWB,  51.19,-115.55,  -7.00,1396.90
2,1, 7,21, 0, 1, 0.00,10.00,SummerDesignDay
8,9.168072468920075
10,3686127.1022765117
437,1445559.5833091229
474,308491.9659986814
2,1, 7,21, 0, 1,10.00,20.00,SummerDesignDay
8,9.108695941932968
10,3686127.1022765117
437,1605402.0425562594
474,286338.69617808438
2,1, 7,21, 0, 1,20.00,30.00,SummerDesignDay
8,9.049198797046217
10,3686127.1022765117
437,1761540.6405148456
474,264687.2598867081
2,1, 7,21, 0, 1,30.00,40.00,SummerDesignDay
8,8.98957742410667
10,3686127.1022765117
437,1916560.3814480368
474,243235.8859041633
2,1, 7,21, 0, 1,40.00,50.00,SummerDesignDay
8,8.929828419558682
10,3686127.1022765117
437,2070621.7530809399
474,221929.54012940083
2,1, 7,21, 0, 1,50.00,60.00,SummerDesignDay
8,8.86995759746822
10,3686127.1022765117
437,2223897.9186066507
474,200717.35902396509
2,1, 7,21, 0, 1, 0.00,60.00,SummerDesignDay
243,24.600476502649884
283,22.000000704232364
323,24.000000000000015
2,1, 7,21, 0, 2, 0.00,10.00,SummerDesignDay
8,8.829972937101186
10,2047848.3901536177
437,3005661.2780264306
474,0.0
2,1, 7,21, 0, 2,10.00,20.00,SummerDesignDay
8,8.789932657654998
10,2047848.3901536177
437,3168808.454774471
474,0.0
2,1, 7,21, 0, 2,20.00,30.00,SummerDesignDay
8,8.749836303015366
10,2047848.3901536177
437,3299177.3664998614
474,0.0
2,1, 7,21, 0, 2,30.00,40.00,SummerDesignDay
8,8.709684236896468
10,2047848.3901536177
437,3426310.9442017755
474,0.0
2,1, 7,21, 0, 2,40.00,50.00,SummerDesignDay
8,8.669475663037103
10,2047848.3901536177
437,3549970.152254668
474,0.0
2,1, 7,21, 0, 2,50.00,60.00,SummerDesignDay
8,8.629210899646538
10,2047848.3901536177
437,3671102.4919144229
474,0.0
2,1, 7,21, 0, 2, 0.00,60.00,SummerDesignDay
243,24.358767014792425
283,22.00000000006139
323,23.560906392618667
2,1, 7,21, 0, 3, 0.00,10.00,SummerDesignDay
8,8.598976385016892
10,409569.6780307236
437,0.0
474,0.0
2,1, 7,21, 0, 3,10.00,20.00,SummerDesignDay
8,8.568710010728186
10,409569.6780307236
437,0.0
474,0.0
2,1, 7,21, 0, 3,20.00,30.00,SummerDesignDay
8,8.538411680999824
10,409569.6780307236
437,0.0
474,0.0
2,1, 7,21, 0, 3,30.00,40.00,SummerDesignDay
8,8.508081531011659
10,409569.6780307236
437,0.0
474,0.0
2,1, 7,21, 0, 3,40.00,50.00,SummerDesignDay
8,8.477719486378878
10,409569.6780307236
437,0.0
474,0.0
2,1, 7,21, 0, 3,50.00,60.00,SummerDesignDay
8,8.44732213231329
10,409569.6780307236
437,0.0
474,0.0
2,1, 7,21, 0, 3, 0.00,60.00,SummerDesignDay
243,24.12753180181136
283,19.83244906515061
323,22.585870869427809
2,1, 7,21, 0, 4, 0.00,10.00,SummerDesignDay
8,8.416896179962679
10,409569.6780307236
437,0.0
474,0.0
2,1, 7,21, 0, 4,10.00,20.00,SummerDesignDay
8,8.386438236498608
10,409569.6780307236
437,0.0
474,0.0
2,1, 7,21, 0, 4,20.00,30.00,SummerDesignDay
8,8.355948044284068
10,409569.6780307236
437,0.0
474,0.0
2,1, 7,21, 0, 4,30.00,40.00,SummerDesignDay
8,8.325425972513595
10,409569.6780307236
437,0.0
474,0.0
2,1, 7,21, 0, 4,40.00,50.00,SummerDesignDay
8,8.294868186717855
10,409569.6780307236
437,0.0
474,0.0
2,1, 7,21, 0, 4,50.00,60.00,SummerDesignDay
8,8.264281455042731
10,409569.6780307236
437,0.0
474,0.0
2,1, 7,21, 0, 4, 0.00,60.00,SummerDesignDay
243,23.798209101635874
283,18.99258552920419
323,21.95623796541469
2,1, 7,21, 0, 5, 0.00,10.00,SummerDesignDay
8,8.243873510705246
10,409569.6780307236
437,0.0
474,0.0
2,1, 7,21, 0, 5,10.00,20.00,SummerDesignDay
8,8.223447913503242
10,409569.6780307236
437,0.0
474,0.0
2,1, 7,21, 0, 5,20.00,30.00,SummerDesignDay
8,8.203010922189153
10,409569.6780307236
437,0.0
474,0.0
2,1, 7,21, 0, 5,30.00,40.00,SummerDesignDay
8,8.182556651776391
10,409569.6780307236
437,0.0
474,0.0
2,1, 7,21, 0, 5,40.00,50.00,SummerDesignDay
8,8.162091031899337
10,409569.6780307236
437,0.0
474,0.0
2,1, 7,21, 0, 5,50.00,60.00,SummerDesignDay
8,8.141607956176271
10,409569.6780307236
437,0.0
474,0.0
2,1, 7,21, 0, 5, 0.00,60.00,SummerDesignDay
243,23.428977967855159
283,18.58959388016943
323,21.588767144069736
2,1, 7,21, 0, 6, 0.00,10.00,SummerDesignDay
8,8.162091031899337
10,409569.6780307236
437,0.0
474,0.0
2,1, 7,21, 0, 6,10.00,20.00,SummerDesignDay
8,8.182556651776391
10,409569.6780307236
437,0.0
474,0.0
2,1, 7,21, 0, 6,20.00,30.00,SummerDesignDay
8,8.203010922189153
10,409569.6780307236
437,0.0
474,0.0
2,1, 7,21, 0, 6,30.00,40.00,SummerDesignDay
8,8.223447913503242
10,409569.6780307236
437,0.0
474,0.0
2,1, 7,21, 0, 6,40.00,50.00,SummerDesignDay
8,8.243873510705246
10,409569.6780307236
437,0.0
474,0.0
2,1, 7,21, 0, 6,50.00,60.00,SummerDesignDay
8,8.264281455042731
10,409569.6780307236
437,0.0
474,0.0
2,1, 7,21, 0, 6, 0.00,60.00,SummerDesignDay
243,23.273024257720779
283,18.59453848252618
323,21.354346118350326
2,1, 7,21, 0, 7, 0.00,10.00,SummerDesignDay
8,8.335601378958323
10,409569.6780307236
437,0.0
474,0.0
2,1, 7,21, 0, 7,10.00,20.00,SummerDesignDay
8,8.406746044412723
10,409569.6780307236
437,0.0
474,0.0
2,1, 7,21, 0, 7,20.00,30.00,SummerDesignDay
8,8.477719486378878
10,409569.6780307236
437,0.0
474,0.0
2,1, 7,21, 0, 7,30.00,40.00,SummerDesignDay
8,8.54851569096514
10,409569.6780307236
437,0.0
474,0.0
2,1, 7,21, 0, 7,40.00,50.00,SummerDesignDay
8,8.61913860111238
10,409569.6780307236
437,0.0
474,0.0
2,1, 7,21, 0, 7,50.00,60.00,SummerDesignDay
8,8.689588437854562
10,409569.6780307236
437,0.0
474,0.0
2,1, 7,21, 0, 7, 0.00,60.00,SummerDesignDay
243,23.427498295218368
283,19.177387767058695
323,21.338029926338945
2,1, 7,21, 0, 8, 0.00,10.00,SummerDesignDay
8,8.85996572767301
10,409569.6780307236
437,0.0
474,0.0
2,1, 7,21, 0, 8,10.00,20.00,SummerDesignDay
8,9.029339776292629
10,409569.6780307236
437,0.0
474,0.0
2,1, 7,21, 0, 8,20.00,30.00,SummerDesignDay
8,9.197713010531788
10,409569.6780307236
437,0.0
474,0.0
2,1, 7,21, 0, 8,30.00,40.00,SummerDesignDay
8,9.365096812375848
10,409569.6780307236
437,0.0
474,0.0
2,1, 7,21, 0, 8,40.00,50.00,SummerDesignDay
8,9.531503361841422
10,409569.6780307236
437,0.0
474,0.0
2,1, 7,21, 0, 8,50.00,60.00,SummerDesignDay
8,9.696928185032912
10,409569.6780307236
437,0.0
474,0.0
2,1, 7,21, 0, 8, 0.00,60.00,SummerDesignDay
243,23.7387676919421
283,20.156812659734795
323,21.635146954206964
2,1, 7,21, 0, 9, 0.00,10.00,SummerDesignDay
8,9.880690526256489
10,409569.6780307236
437,0.0
474,0.0
2,1, 7,21, 0, 9,10.00,20.00,SummerDesignDay
8,10.063247768633849
10,409569.6780307236
437,0.0
474,0.0
2,1, 7,21, 0, 9,20.00,30.00,SummerDesignDay
8,10.244637637530082
10,409569.6780307236
437,0.0
474,0.0
2,1, 7,21, 0, 9,30.00,40.00,SummerDesignDay
8,10.424848773563947
10,409569.6780307236
437,0.0
474,0.0
2,1, 7,21, 0, 9,40.00,50.00,SummerDesignDay
8,10.603898948792967
10,409569.6780307236
437,0.0
474,0.0
2,1, 7,21, 0, 9,50.00,60.00,SummerDesignDay
8,10.781815460410736
10,409569.6780307236
437,0.0
474,0.0
2,1, 7,21, 0, 9, 0.00,60.00,SummerDesignDay
243,24.33458171527722
283,21.51363518465483
323,22.246433900709147
2,1, 7,21, 0,10, 0.00,10.00,SummerDesignDay
8,10.940027839575924
10,2047848.3901536177
437,0.0
474,0.0
2,1, 7,21, 0,10,10.00,20.00,SummerDesignDay
8,11.097348520032867
10,2047848.3901536177
437,0.0
474,0.0
2,1, 7,21, 0,10,20.00,30.00,SummerDesignDay
8,11.253779599231992
10,2047848.3901536177
437,0.0
474,0.0
2,1, 7,21, 0,10,30.00,40.00,SummerDesignDay
8,11.409321810927997
10,2047848.3901536177
437,0.0
474,0.0
2,1, 7,21, 0,10,40.00,50.00,SummerDesignDay
8,11.563977235983597
10,2047848.3901536177
437,0.0
474,135281.81418293547
2,1, 7,21, 0,10,50.00,60.00,SummerDesignDay
8,11.717775704590944
10,2047848.3901536177
437,0.0
474,202778.04856169376
2,1, 7,21, 0,10, 0.00,60.00,SummerDesignDay
243,25.029783457667297
283,23.213269362168604
323,23.650558787879178
2,1, 7,21, 0,11, 0.00,10.00,SummerDesignDay
8,11.852759001366481
10,2866987.746215064
437,0.0
474,1267840.5831972543
2,1, 7,21, 0,11,10.00,20.00,SummerDesignDay
8,11.987076432520589
10,2866987.746215064
437,0.0
474,1651169.9491172862
2,1, 7,21, 0,11,20.00,30.00,SummerDesignDay
8,12.120732532949499
10,2866987.746215064
437,0.0
474,2055519.0803690714
2,1, 7,21, 0,11,30.00,40.00,SummerDesignDay
8,12.253732751241758
10,2866987.746215064
437,0.0
474,2469426.5767539048
2,1, 7,21, 0,11,40.00,50.00,SummerDesignDay
8,12.386082023068124
10,2866987.746215064
437,0.0
474,2859647.9784151657
2,1, 7,21, 0,11,50.00,60.00,SummerDesignDay
8,12.51778518418237
10,2866987.746215064
437,0.0
474,3241182.534743527
2,1, 7,21, 0,11, 0.00,60.00,SummerDesignDay
243,25.825247558404386
283,23.994096795812469
323,23.99998094106392
2,1, 7,21, 0,12, 0.00,10.00,SummerDesignDay
8,12.605223732548529
10,3686127.1022765117
437,0.0
474,4279160.141784264
2,1, 7,21, 0,12,10.00,20.00,SummerDesignDay
8,12.692391267573014
10,3686127.1022765117
437,0.0
474,4586253.4919386119
2,1, 7,21, 0,12,20.00,30.00,SummerDesignDay
8,12.779273250801264
10,3686127.1022765117
437,0.0
474,4868337.004342791
2,1, 7,21, 0,12,30.00,40.00,SummerDesignDay
8,12.865866103603099
10,3686127.1022765117
437,0.0
474,5153483.746224296
2,1, 7,21, 0,12,40.00,50.00,SummerDesignDay
8,12.95219170368721
10,3686127.1022765117
437,0.0
474,5442326.68117952
2,1, 7,21, 0,12,50.00,60.00,SummerDesignDay
8,13.038236398727048
10,3686127.1022765117
437,0.0
474,5734017.755779945
2,1, 7,21, 0,12, 0.00,60.00,SummerDesignDay
243,26.513172532049848
283,23.999999330787813
323,23.999999999981584
2,1, 7,21, 0,13, 0.00,10.00,SummerDesignDay
8,13.106863323671514
10,3686127.1022765117
437,0.0
474,6537289.970209767
2,1, 7,21, 0,13,10.00,20.00,SummerDesignDay
8,13.175322752935689
10,3686127.1022765117
437,0.0
474,6799714.584765986
2,1, 7,21, 0,13,20.00,30.00,SummerDesignDay
8,13.243607077052833
10,3686127.1022765117
437,0.0
474,7049327.163022148
2,1, 7,21, 0,13,30.00,40.00,SummerDesignDay
8,13.311716761967764
10,3686127.1022765117
437,0.0
474,7292448.877416755
2,1, 7,21, 0,13,40.00,50.00,SummerDesignDay
8,13.379655600288534
10,3686127.1022765117
437,0.0
474,7531537.85729757
2,1, 7,21, 0,13,50.00,60.00,SummerDesignDay
8,13.447417992098993
10,3686127.1022765117
437,0.0
474,7772836.7051190049
2,1, 7,21, 0,13, 0.00,60.00,SummerDesignDay
243,27.057746823908017
283,23.999999999929729
323,24.000000000000019
2,1, 7,21, 0,14, 0.00,10.00,SummerDesignDay
8,13.48967636106858
10,3686127.1022765117
437,0.0
474,7800194.954917859
2,1, 7,21, 0,14,10.00,20.00,SummerDesignDay
8,13.531879484215902
10,3686127.1022765117
437,0.0
474,7958231.776075192
2,1, 7,21, 0,14,20.00,30.00,SummerDesignDay
8,13.574007141128604
10,3686127.1022765117
437,0.0
474,8116606.269227568
2,1, 7,21, 0,14,30.00,40.00,SummerDesignDay
8,13.616064464404
10,3686127.1022765117
437,0.0
474,8277585.934973393
2,1, 7,21, 0,14,40.00,50.00,SummerDesignDay
8,13.658067092741993
10,3686127.1022765117
437,0.0
474,8444606.829857402
2,1, 7,21, 0,14,50.00,60.00,SummerDesignDay
8,13.699994511440187
10,3686127.1022765117
437,0.0
474,8616812.66471413
2,1, 7,21, 0,14, 0.00,60.00,SummerDesignDay
243,27.45894188435311
283,24.00000000000001
323,24.000000000000019
2,1, 7,21, 0,15, 0.00,10.00,SummerDesignDay
8,13.699994511440187
10,3686127.1022765117
437,0.0
474,8260340.481594464
2,1, 7,21, 0,15,10.00,20.00,SummerDesignDay
8,13.699994511440187
10,3686127.1022765117
437,0.0
474,8318287.1564286299
2,1, 7,21, 0,15,20.00,30.00,SummerDesignDay
8,13.699994511440187
10,3686127.1022765117
437,0.0
474,8390535.985031724
2,1, 7,21, 0,15,30.00,40.00,SummerDesignDay
8,13.699994511440187
10,3686127.1022765117
437,0.0
474,8470561.405736363
2,1, 7,21, 0,15,40.00,50.00,SummerDesignDay
8,13.699994511440187
10,3686127.1022765117
437,0.0
474,8555119.283073236
2,1, 7,21, 0,15,50.00,60.00,SummerDesignDay
8,13.699994511440187
10,3686127.1022765117
437,0.0
474,8640821.416970484
2,1, 7,21, 0,15, 0.00,60.00,SummerDesignDay
243,27.69478771450134
283,24.000000000000015
323,24.000000000000019
2,1, 7,21, 0,16, 0.00,10.00,SummerDesignDay
8,13.649672482665246
10,3686127.1022765117
437,0.0
474,8164582.492667522
2,1, 7,21, 0,16,10.00,20.00,SummerDesignDay
8,13.599254618304699
10,3686127.1022765117
437,0.0
474,8092444.517886111
2,1, 7,21, 0,16,20.00,30.00,SummerDesignDay
8,13.548732274837317
10,3686127.1022765117
437,0.0
474,8019621.587811632
2,1, 7,21, 0,16,30.00,40.00,SummerDesignDay
8,13.498121848998244
10,3686127.1022765117
437,0.0
474,7939453.609688282
2,1, 7,21, 0,16,40.00,50.00,SummerDesignDay
8,13.447417992098993
10,3686127.1022765117
437,0.0
474,7860550.096387478
2,1, 7,21, 0,16,50.00,60.00,SummerDesignDay
8,13.396613561947288
10,3686127.1022765117
437,0.0
474,7771129.277511876
2,1, 7,21, 0,16, 0.00,60.00,SummerDesignDay
243,27.744678878357666
283,23.99999999999997
323,24.00000000000001
2,1, 7,21, 0,17, 0.00,10.00,SummerDesignDay
8,13.328721556799375
10,3686127.1022765117
437,0.0
474,7628501.876877669
2,1, 7,21, 0,17,10.00,20.00,SummerDesignDay
8,13.260655497638722
10,3686127.1022765117
437,0.0
474,7481659.0558125539
2,1, 7,21, 0,17,20.00,30.00,SummerDesignDay
8,13.192415093565853
10,3686127.1022765117
437,0.0
474,7333710.684640281
2,1, 7,21, 0,17,30.00,40.00,SummerDesignDay
8,13.1239959996646
10,3686127.1022765117
437,0.0
474,7184478.899676293
2,1, 7,21, 0,17,40.00,50.00,SummerDesignDay
8,13.055404330198125
10,3686127.1022765117
437,0.0
474,7033442.233602014
2,1, 7,21, 0,17,50.00,60.00,SummerDesignDay
8,12.986636312061594
10,3686127.1022765117
437,0.0
474,6879321.187764265
2,1, 7,21, 0,17, 0.00,60.00,SummerDesignDay
243,27.608905359709224
283,24.000000000000015
323,24.000000000000044
2,1, 7,21, 0,18, 0.00,10.00,SummerDesignDay
8,12.900433778114536
10,3686127.1022765117
437,0.0
474,6813821.56384577
2,1, 7,21, 0,18,10.00,20.00,SummerDesignDay
8,12.813944208572046
10,3686127.1022765117
437,0.0
474,6605821.296838023
2,1, 7,21, 0,18,20.00,30.00,SummerDesignDay
8,12.72717130942231
10,3686127.1022765117
437,0.0
474,6388602.208287172
2,1, 7,21, 0,18,30.00,40.00,SummerDesignDay
8,12.640128941445754
10,3686127.1022765117
437,0.0
474,6166717.7961451369
2,1, 7,21, 0,18,40.00,50.00,SummerDesignDay
8,12.552794961087115
10,3686127.1022765117
437,0.0
474,5937184.572630761
2,1, 7,21, 0,18,50.00,60.00,SummerDesignDay
8,12.465173246226799
10,3686127.1022765117
437,0.0
474,5703383.88766139
2,1, 7,21, 0,18, 0.00,60.00,SummerDesignDay
243,27.308863887556716
283,24.00000000000004
323,24.00000000000004
2,1, 7,21, 0,19, 0.00,10.00,SummerDesignDay
8,12.333221291970667
10,3686127.1022765117
437,0.0
474,5765781.294655912
2,1, 7,21, 0,19,10.00,20.00,SummerDesignDay
8,12.200612095313528
10,3686127.1022765117
437,0.0
474,5409163.160418435
2,1, 7,21, 0,19,20.00,30.00,SummerDesignDay
8,12.067350167237623
10,3686127.1022765117
437,0.0
474,5033254.024626207
2,1, 7,21, 0,19,30.00,40.00,SummerDesignDay
8,11.933430192371139
10,3686127.1022765117
437,0.0
474,4645821.009791885
2,1, 7,21, 0,19,40.00,50.00,SummerDesignDay
8,11.798846978333849
10,3686127.1022765117
437,0.0
474,4247816.660033302
2,1, 7,21, 0,19,50.00,60.00,SummerDesignDay
8,11.66359551943337
10,3686127.1022765117
437,0.0
474,3839790.227358979
2,1, 7,21, 0,19, 0.00,60.00,SummerDesignDay
243,26.826218079393756
283,23.999999999999998
323,24.00000000000001
2,1, 7,21, 0,20, 0.00,10.00,SummerDesignDay
8,11.563977235983597
10,3686127.1022765117
437,0.0
474,3934275.5945840117
2,1, 7,21, 0,20,10.00,20.00,SummerDesignDay
8,11.4640075015588
10,3686127.1022765117
437,0.0
474,3608161.4107329465
2,1, 7,21, 0,20,20.00,30.00,SummerDesignDay
8,11.363658737456776
10,3686127.1022765117
437,0.0
474,3262656.803453659
2,1, 7,21, 0,20,30.00,40.00,SummerDesignDay
8,11.262954363511572
10,3686127.1022765117
437,0.0
474,2904742.963207106
2,1, 7,21, 0,20,40.00,50.00,SummerDesignDay
8,11.161866330679086
10,3686127.1022765117
437,0.0
474,2534906.5815424688
2,1, 7,21, 0,20,50.00,60.00,SummerDesignDay
8,11.060418956681522
10,3686127.1022765117
437,0.0
474,2148881.841549621
2,1, 7,21, 0,20, 0.00,60.00,SummerDesignDay
243,26.298557386920235
283,24.000000000000026
323,24.000000000000019
2,1, 7,21, 0,21, 0.00,10.00,SummerDesignDay
8,10.977131286846806
10,3686127.1022765117
437,0.0
474,1795835.250420989
2,1, 7,21, 0,21,10.00,20.00,SummerDesignDay
8,10.893588371131973
10,3686127.1022765117
437,0.0
474,1445029.6584774743
2,1, 7,21, 0,21,20.00,30.00,SummerDesignDay
8,10.809795547365976
10,3686127.1022765117
437,0.0
474,1111941.1058701683
2,1, 7,21, 0,21,30.00,40.00,SummerDesignDay
8,10.725757967997679
10,3686127.1022765117
437,0.0
474,1002012.0170096393
2,1, 7,21, 0,21,40.00,50.00,SummerDesignDay
8,10.641455374902039
10,3686127.1022765117
437,0.0
474,973157.5596090157
2,1, 7,21, 0,21,50.00,60.00,SummerDesignDay
8,10.5568960542249
10,3686127.1022765117
437,0.0
474,944185.9371005341
2,1, 7,21, 0,21, 0.00,60.00,SummerDesignDay
243,25.78792737450824
283,23.909766627348277
323,24.000000000000026
2,1, 7,21, 0,22, 0.00,10.00,SummerDesignDay
8,10.472075212813188
10,3686127.1022765117
437,0.0
474,915219.9908108184
2,1, 7,21, 0,22,10.00,20.00,SummerDesignDay
8,10.386998798904175
10,3686127.1022765117
437,0.0
474,886194.568205848
2,1, 7,21, 0,22,20.00,30.00,SummerDesignDay
8,10.30167171596391
10,3686127.1022765117
437,0.0
474,857083.3684280197
2,1, 7,21, 0,22,30.00,40.00,SummerDesignDay
8,10.216073757639599
10,3686127.1022765117
437,0.0
474,827884.9285364794
2,1, 7,21, 0,22,40.00,50.00,SummerDesignDay
8,10.130209237813493
10,3686127.1022765117
437,0.0
474,798592.1264772886
2,1, 7,21, 0,22,50.00,60.00,SummerDesignDay
8,10.04408463813862
10,3686127.1022765117
437,0.0
474,769186.4257653189
2,1, 7,21, 0,22, 0.00,60.00,SummerDesignDay
243,25.339476675433123
283,23.28180345428962
323,24.00000000000003
2,1, 7,21, 0,23, 0.00,10.00,SummerDesignDay
8,9.976916887099673
10,3686127.1022765117
437,0.0
474,679551.0590800719
2,1, 7,21, 0,23,10.00,20.00,SummerDesignDay
8,9.909588076458509
10,3686127.1022765117
437,0.0
474,653428.7204030053
2,1, 7,21, 0,23,20.00,30.00,SummerDesignDay
8,9.842097633454163
10,3686127.1022765117
437,0.0
474,627885.0623545825
2,1, 7,21, 0,23,30.00,40.00,SummerDesignDay
8,9.77444528670805
10,3686127.1022765117
437,0.0
474,602200.6902802269
2,1, 7,21, 0,23,40.00,50.00,SummerDesignDay
8,9.706630051061567
10,3686127.1022765117
437,0.0
474,576546.6636629092
2,1, 7,21, 0,23,50.00,60.00,SummerDesignDay
8,9.638655537901255
10,3686127.1022765117
437,0.0
474,551019.797140633
2,1, 7,21, 0,23, 0.00,60.00,SummerDesignDay
243,25.091364675863987
283,22.454824744650649
323,24.00000000000001
2,1, 7,21, 0,24, 0.00,10.00,SummerDesignDay
8,9.570513192961173
10,3686127.1022765117
437,77982.02726436965
474,481688.20453040089
2,1, 7,21, 0,24,10.00,20.00,SummerDesignDay
8,9.502206337774363
10,3686127.1022765117
437,514794.7589548674
474,454860.79189384306
2,1, 7,21, 0,24,20.00,30.00,SummerDesignDay
8,9.433734346347242
10,3686127.1022765117
437,575338.5465696753
474,428656.6109507597
2,1, 7,21, 0,24,30.00,40.00,SummerDesignDay
8,9.365096812375848
10,3686127.1022765117
437,783778.3461907018
474,402809.02095433426
2,1, 7,21, 0,24,40.00,50.00,SummerDesignDay
8,9.296293065048893
10,3686127.1022765117
437,971685.2946671384
474,377437.9724827761
2,1, 7,21, 0,24,50.00,60.00,SummerDesignDay
8,9.227322555488419
10,3686127.1022765117
437,1153013.3603301612
474,352495.23048822299
2,1, 7,21, 0,24, 0.00,60.00,SummerDesignDay
243,24.853288435615338
283,22.008273751148648
323,24.000000000000033
3,1, 7,21, 0,SummerDesignDay
244,25.157418331747875,21.901451532548316,16,20,28.6389859189182, 6,20
284,31.54373280430934,27.761470546309594,11,10,38.47304938082585, 6,10
324,29.844236777422926,27.632149968616039,10,50,32.236491454739709, 7,10
4,1, 7
7,19.677999999999995,12.999999999999999,21, 5,60,27.4,21,14,60
1,BANFF CS ANN HTG 99.6% CONDNS DB,  51.19,-115.55,  -7.00,1396.90
2,1,12,21, 0, 1, 0.00,10.00,WinterDesignDay
8,-30.3
10,3686127.1022765117
437,52841723.88367845
474,0.0
2,1,12,21, 0, 1,10.00,20.00,WinterDesignDay
8,-30.3
10,3686127.1022765117
437,52837002.980597678
474,0.0
2,1,12,21, 0, 1,20.00,30.00,WinterDesignDay
8,-30.3
10,3686127.1022765117
437,52829814.07817203
474,0.0
2,1,12,21, 0, 1,30.00,40.00,WinterDesignDay
8,-30.3
10,3686127.1022765117
437,52822063.807711187
474,0.0
2,1,12,21, 0, 1,40.00,50.00,WinterDesignDay
8,-30.3
10,3686127.1022765117
437,52813971.30548336
474,0.0
2,1,12,21, 0, 1,50.00,60.00,WinterDesignDay
8,-30.3
10,3686127.1022765117
437,52805695.3811079
474,0.0
2,1,12,21, 0, 1, 0.00,60.00,WinterDesignDay
243,14.049861928460152
283,21.999999999999984
323,21.999999999999987
2,1,12,21, 0, 2, 0.00,10.00,WinterDesignDay
8,-30.3
10,2047848.3901536177
437,53813879.390197377
474,0.0
2,1,12,21, 0, 2,10.00,20.00,WinterDesignDay
8,-30.3
10,2047848.3901536177
437,53892968.01043555
474,0.0
2,1,12,21, 0, 2,20.00,30.00,WinterDesignDay
8,-30.3
10,2047848.3901536177
437,53926167.02549593
474,0.0
2,1,12,21, 0, 2,30.00,40.00,WinterDesignDay
8,-30.3
10,2047848.3901536177
437,53950435.24285971
474,0.0
2,1,12,21, 0, 2,40.00,50.00,WinterDesignDay
8,-30.3
10,2047848.3901536177
437,53967956.329852167
474,0.0
2,1,12,21, 0, 2,50.00,60.00,WinterDesignDay
8,-30.3
10,2047848.3901536177
437,53980791.66753213
474,0.0
2,1,12,21, 0, 2, 0.00,60.00,WinterDesignDay
243,14.08823953704618
283,21.999999999999984
323,21.999999999999984
2,1,12,21, 0, 3, 0.00,10.00,WinterDesignDay
8,-30.3
10,409569.6780307236
437,39399527.32731112
474,0.0
2,1,12,21, 0, 3,10.00,20.00,WinterDesignDay
8,-30.3
10,409569.6780307236
437,45956817.68943786
474,0.0
2,1,12,21, 0, 3,20.00,30.00,WinterDesignDay
8,-30.3
10,409569.6780307236
437,44479278.34757451
474,0.0
2,1,12,21, 0, 3,30.00,40.00,WinterDesignDay
8,-30.3
10,409569.6780307236
437,46018747.61070262
474,0.0
2,1,12,21, 0, 3,40.00,50.00,WinterDesignDay
8,-30.3
10,409569.6780307236
437,46268758.16715451
474,0.0
2,1,12,21, 0, 3,50.00,60.00,WinterDesignDay
8,-30.3
10,409569.6780307236
437,46386063.952193979
474,0.0
2,1,12,21, 0, 3, 0.00,60.00,WinterDesignDay
243,14.086433458546149
283,18.036404258045648
323,18.092581196794066
2,1,12,21, 0, 4, 0.00,10.00,WinterDesignDay
8,-30.3
10,409569.6780307236
437,46474857.69123989
474,0.0
2,1,12,21, 0, 4,10.00,20.00,WinterDesignDay
8,-30.3
10,409569.6780307236
437,46548399.550215158
474,0.0
2,1,12,21, 0, 4,20.00,30.00,WinterDesignDay
8,-30.3
10,409569.6780307236
437,46611609.38755116
474,0.0
2,1,12,21, 0, 4,30.00,40.00,WinterDesignDay
8,-30.3
10,409569.6780307236
437,46669021.314157787
474,0.0
2,1,12,21, 0, 4,40.00,50.00,WinterDesignDay
8,-30.3
10,409569.6780307236
437,46720083.788018379
474,0.0
2,1,12,21, 0, 4,50.00,60.00,WinterDesignDay
8,-30.3
10,409569.6780307236
437,46767971.708326358
474,0.0
2,1,12,21, 0, 4, 0.00,60.00,WinterDesignDay
243,13.940438691453132
283,18.000000686329753
323,18.00000000285074
2,1,12,21, 0, 5, 0.00,10.00,WinterDesignDay
8,-30.3
10,409569.6780307236
437,46813645.29470346
474,0.0
2,1,12,21, 0, 5,10.00,20.00,WinterDesignDay
8,-30.3
10,409569.6780307236
437,46856857.33152262
474,0.0
2,1,12,21, 0, 5,20.00,30.00,WinterDesignDay
8,-30.3
10,409569.6780307236
437,46897428.176837127
474,0.0
2,1,12,21, 0, 5,30.00,40.00,WinterDesignDay
8,-30.3
10,409569.6780307236
437,46936933.005247298
474,0.0
2,1,12,21, 0, 5,40.00,50.00,WinterDesignDay
8,-30.3
10,409569.6780307236
437,46975812.621992368
474,0.0
2,1,12,21, 0, 5,50.00,60.00,WinterDesignDay
8,-30.3
10,409569.6780307236
437,47013893.62924514
474,0.0
2,1,12,21, 0, 5, 0.00,60.00,WinterDesignDay
243,13.701468243648803
283,18.00000000009767
323,18.000000000000005
2,1,12,21, 0, 6, 0.00,10.00,WinterDesignDay
8,-30.3
10,409569.6780307236
437,47051261.78530339
474,0.0
2,1,12,21, 0, 6,10.00,20.00,WinterDesignDay
8,-30.3
10,409569.6780307236
437,47087945.22480131
474,0.0
2,1,12,21, 0, 6,20.00,30.00,WinterDesignDay
8,-30.3
10,409569.6780307236
437,47123870.78255762
474,0.0
2,1,12,21, 0, 6,30.00,40.00,WinterDesignDay
8,-30.3
10,409569.6780307236
437,47159861.91586203
474,0.0
2,1,12,21, 0, 6,40.00,50.00,WinterDesignDay
8,-30.3
10,409569.6780307236
437,47197201.62539514
474,0.0
2,1,12,21, 0, 6,50.00,60.00,WinterDesignDay
8,-30.3
10,409569.6780307236
437,47234624.46110007
474,0.0
2,1,12,21, 0, 6, 0.00,60.00,WinterDesignDay
243,13.456426793327525
283,18.00000000000001
323,17.999999999999998
2,1,12,21, 0, 7, 0.00,10.00,WinterDesignDay
8,-30.3
10,409569.6780307236
437,47272128.13523333
474,0.0
2,1,12,21, 0, 7,10.00,20.00,WinterDesignDay
8,-30.3
10,409569.6780307236
437,47309663.541980598
474,0.0
2,1,12,21, 0, 7,20.00,30.00,WinterDesignDay
8,-30.3
10,409569.6780307236
437,47347192.226931449
474,0.0
2,1,12,21, 0, 7,30.00,40.00,WinterDesignDay
8,-30.3
10,409569.6780307236
437,47384683.43999864
474,0.0
2,1,12,21, 0, 7,40.00,50.00,WinterDesignDay
8,-30.3
10,409569.6780307236
437,47422111.36651236
474,0.0
2,1,12,21, 0, 7,50.00,60.00,WinterDesignDay
8,-30.3
10,409569.6780307236
437,47459453.52042435
474,0.0
2,1,12,21, 0, 7, 0.00,60.00,WinterDesignDay
243,13.22236538384188
283,17.999999999999998
323,17.999999999999998
2,1,12,21, 0, 8, 0.00,10.00,WinterDesignDay
8,-30.3
10,409569.6780307236
437,47496689.8322019
474,0.0
2,1,12,21, 0, 8,10.00,20.00,WinterDesignDay
8,-30.3
10,409569.6780307236
437,47533802.11501438
474,0.0
2,1,12,21, 0, 8,20.00,30.00,WinterDesignDay
8,-30.3
10,409569.6780307236
437,47570773.7374574
474,0.0
2,1,12,21, 0, 8,30.00,40.00,WinterDesignDay
8,-30.3
10,409569.6780307236
437,47607589.41110642
474,0.0
2,1,12,21, 0, 8,40.00,50.00,WinterDesignDay
8,-30.3
10,409569.6780307236
437,47644235.04328105
474,0.0
2,1,12,21, 0, 8,50.00,60.00,WinterDesignDay
8,-30.3
10,409569.6780307236
437,47680697.62770702
474,0.0
2,1,12,21, 0, 8, 0.00,60.00,WinterDesignDay
243,13.002306945357573
283,17.99999999999999
323,17.99999999999999
2,1,12,21, 0, 9, 0.00,10.00,WinterDesignDay
8,-30.3
10,409569.6780307236
437,55186921.615485448
474,0.0
2,1,12,21, 0, 9,10.00,20.00,WinterDesignDay
8,-30.3
10,409569.6780307236
437,49203320.399731229
474,0.0
2,1,12,21, 0, 9,20.00,30.00,WinterDesignDay
8,-30.3
10,409569.6780307236
437,53651345.90383002
474,0.0
2,1,12,21, 0, 9,30.00,40.00,WinterDesignDay
8,-30.3
10,409569.6780307236
437,52555050.40879565
474,0.0
2,1,12,21, 0, 9,40.00,50.00,WinterDesignDay
8,-30.3
10,409569.6780307236
437,52487791.00778058
474,0.0
2,1,12,21, 0, 9,50.00,60.00,WinterDesignDay
8,-30.3
10,409569.6780307236
437,52451898.634367119
474,0.0
2,1,12,21, 0, 9, 0.00,60.00,WinterDesignDay
243,12.808158768206349
283,19.996859469748516
323,19.997063377204758
2,1,12,21, 0,10, 0.00,10.00,WinterDesignDay
8,-30.3
10,2047848.3901536177
437,59735234.681407589
474,0.0
2,1,12,21, 0,10,10.00,20.00,WinterDesignDay
8,-30.3
10,2047848.3901536177
437,53502966.099658299
474,0.0
2,1,12,21, 0,10,20.00,30.00,WinterDesignDay
8,-30.3
10,2047848.3901536177
437,57750708.0327416
474,0.0
2,1,12,21, 0,10,30.00,40.00,WinterDesignDay
8,-30.3
10,2047848.3901536177
437,56559294.046775858
474,0.0
2,1,12,21, 0,10,40.00,50.00,WinterDesignDay
8,-30.3
10,2047848.3901536177
437,56402876.238158937
474,0.0
2,1,12,21, 0,10,50.00,60.00,WinterDesignDay
8,-30.3
10,2047848.3901536177
437,56292396.738186959
474,0.0
2,1,12,21, 0,10, 0.00,60.00,WinterDesignDay
243,12.69493414504928
283,21.99652979299374
323,21.996774591500285
2,1,12,21, 0,11, 0.00,10.00,WinterDesignDay
8,-30.3
10,2866987.746215064
437,55688978.86642745
474,0.0
2,1,12,21, 0,11,10.00,20.00,WinterDesignDay
8,-30.3
10,2866987.746215064
437,55573267.12652552
474,0.0
2,1,12,21, 0,11,20.00,30.00,WinterDesignDay
8,-30.3
10,2866987.746215064
437,55493635.831183459
474,0.0
2,1,12,21, 0,11,30.00,40.00,WinterDesignDay
8,-30.3
10,2866987.746215064
437,55426536.45655347
474,0.0
2,1,12,21, 0,11,40.00,50.00,WinterDesignDay
8,-30.3
10,2866987.746215064
437,55369046.4212087
474,0.0
2,1,12,21, 0,11,50.00,60.00,WinterDesignDay
8,-30.3
10,2866987.746215064
437,55318483.5725409
474,0.0
2,1,12,21, 0,11, 0.00,60.00,WinterDesignDay
243,12.728775090599307
283,21.999999999999969
323,21.999999999999987
2,1,12,21, 0,12, 0.00,10.00,WinterDesignDay
8,-30.3
10,3686127.1022765117
437,54443485.94635844
474,0.0
2,1,12,21, 0,12,10.00,20.00,WinterDesignDay
8,-30.3
10,3686127.1022765117
437,54346963.21485773
474,0.0
2,1,12,21, 0,12,20.00,30.00,WinterDesignDay
8,-30.3
10,3686127.1022765117
437,54282195.71019587
474,0.0
2,1,12,21, 0,12,30.00,40.00,WinterDesignDay
8,-30.3
10,3686127.1022765117
437,54225168.387073587
474,0.0
2,1,12,21, 0,12,40.00,50.00,WinterDesignDay
8,-30.3
10,3686127.1022765117
437,54174299.41700051
474,0.0
2,1,12,21, 0,12,50.00,60.00,WinterDesignDay
8,-30.3
10,3686127.1022765117
437,54127874.29483648
474,0.0
2,1,12,21, 0,12, 0.00,60.00,WinterDesignDay
243,12.848057165459565
283,21.999999999999987
323,21.99999999999999
2,1,12,21, 0,13, 0.00,10.00,WinterDesignDay
8,-30.3
10,3686127.1022765117
437,53455811.85616377
474,0.0
2,1,12,21, 0,13,10.00,20.00,WinterDesignDay
8,-30.3
10,3686127.1022765117
437,53396474.41879141
474,0.0
2,1,12,21, 0,13,20.00,30.00,WinterDesignDay
8,-30.3
10,3686127.1022765117
437,53348443.46312663
474,0.0
2,1,12,21, 0,13,30.00,40.00,WinterDesignDay
8,-30.3