Program Version,EnergyPlus, Version 8.9.0-497bb3e71c, YMD=2018.07.09 18:12
1,5,Environment Title[],Latitude[deg],Longitude[deg],Time Zone[],Elevation[m]
2,8,Day of Simulation[],Month[],Day of Month[],DST Indicator[1=yes 0=no],Hour[],StartMinute[],EndMinute[],DayType
3,5,Cumulative Day of Simulation[],Month[],Day of Month[],DST Indicator[1=yes 0=no],DayType  ! When Daily Report Variables Requested
4,2,Cumulative Days of Simulation[],Month[]  ! When Monthly Report Variables Requested
5,1,Cumulative Days of Simulation[] ! When Run Period Report Variables Requested
6,1,Calendar Year of Simulation[] ! When Annual Report Variables Requested
7,9,Environment,Site Outdoor Air Drybulb Temperature [C] !Monthly [Value,Min,Day,Hour,Minute,Max,Day,Hour,Minute]
8,1,Environment,Site Outdoor Air Wetbulb Temperature [C] !TimeStep
243,1,ATTIC ZN,Zone Air Temperature [C] !Hourly
244,7,ATTIC ZN,Zone Air Relative Humidity [%] !Daily [Value,Min,Hour,Minute,Max,Hour,Minute]
283,1,DINING ZN,Zone Air Temperature [C] !Hourly
284,7,DINING ZN,Zone Air Relative Humidity [%] !Daily [Value,Min,Hour,Minute,Max,Hour,Minute]
323,1,KITCHEN ZN,Zone Air Temperature [C] !Hourly
324,7,KITCHEN ZN,Zone Air Relative Humidity [%] !Daily [Value,Min,Hour,Minute,Max,Hour,Minute]
10,1,Electricity:Facility [J] !TimeStep
474,1,DistrictCooling:Facility [J] !TimeStep
437,1,DistrictHeating:Facility [J] !TimeStep
End of Data Dictionary
1,BANFF CS ANN CLG .4% CONDNS DB=>MWB,  51.19,-115.55,  -7.00,1396.90
2,1, 7,21, 0, 1, 0.00,10.00,SummerDesignDay
8,9.168072468920075
10,3868232.265912153
437,1413746.8838392189
474,439756.8572091288
2,1, 7,21, 0, 1,10.00,20.00,SummerDesignDay
8,9.108695941932968
10,3868232.265912153
437,1573779.6790170239
474,417526.9949652741
2,1, 7,21, 0, 1,20.00,30.00,SummerDesignDay
8,9.049198797046217
10,3868232.265912153
437,1730065.0476539373
474,395814.3547898074
2,1, 7,21, 0, 1,30.00,40.00,SummerDesignDay
8,8.98957742410667
10,3868232.265912153
437,1885207.9788892286
474,374309.679920137
2,1, 7,21, 0, 1,40.00,50.00,SummerDesignDay
8,8.929828419558682
10,3868232.265912153
437,2039373.6038238707
474,352955.95343137739
2,1, 7,21, 0, 1,50.00,60.00,SummerDesignDay
8,8.86995759746822
10,3868232.265912153
437,2192755.0117208336
474,331698.2885317595
2,1, 7,21, 0, 1, 0.00,60.00,SummerDesignDay
243,24.654959833509357
283,22.00000076816806
323,24.0
2,1, 7,21, 0, 2, 0.00,10.00,SummerDesignDay
8,8.829972937101186
10,2149017.9255067517
437,2975110.873529611
474,0.0
2,1, 7,21, 0, 2,10.00,20.00,SummerDesignDay
8,8.789932657654998
10,2149017.9255067517
437,3138695.0990658465
474,0.0
2,1, 7,21, 0, 2,20.00,30.00,SummerDesignDay
8,8.749836303015366
10,2149017.9255067517
437,3269290.9937590097
474,0.0
2,1, 7,21, 0, 2,30.00,40.00,SummerDesignDay
8,8.709684236896468
10,2149017.9255067517
437,3396367.1700536964
474,0.0
2,1, 7,21, 0, 2,40.00,50.00,SummerDesignDay
8,8.669475663037103
10,2149017.9255067517
437,3519804.356911043
474,0.0
2,1, 7,21, 0, 2,50.00,60.00,SummerDesignDay
8,8.629210899646538
10,2149017.9255067517
437,3640695.221289514
474,0.0
2,1, 7,21, 0, 2, 0.00,60.00,SummerDesignDay
243,24.413411917810988
283,22.000000000066696
323,23.716617570862856
2,1, 7,21, 0, 3, 0.00,10.00,SummerDesignDay
8,8.598976385016892
10,429803.5851013504
437,0.0
474,0.0
2,1, 7,21, 0, 3,10.00,20.00,SummerDesignDay
8,8.568710010728186
10,429803.5851013504
437,0.0
474,0.0
2,1, 7,21, 0, 3,20.00,30.00,SummerDesignDay
8,8.538411680999824
10,429803.5851013504
437,0.0
474,0.0
2,1, 7,21, 0, 3,30.00,40.00,SummerDesignDay
8,8.508081531011659
10,429803.5851013504
437,0.0
474,0.0
2,1, 7,21, 0, 3,40.00,50.00,SummerDesignDay
8,8.477719486378878
10,429803.5851013504
437,0.0
474,0.0
2,1, 7,21, 0, 3,50.00,60.00,SummerDesignDay
8,8.44732213231329
10,429803.5851013504
437,0.0
474,0.0
2,1, 7,21, 0, 3, 0.00,60.00,SummerDesignDay
243,24.182193326110963
283,19.8477271969192
323,22.716887780713294
2,1, 7,21, 0, 4, 0.00,10.00,SummerDesignDay
8,8.416896179962679
10,429803.5851013504
437,0.0
474,0.0
2,1, 7,21, 0, 4,10.00,20.00,SummerDesignDay
8,8.386438236498608
10,429803.5851013504
437,0.0
474,0.0
2,1, 7,21, 0, 4,20.00,30.00,SummerDesignDay
8,8.355948044284068
10,429803.5851013504
437,0.0
474,0.0
2,1, 7,21, 0, 4,30.00,40.00,SummerDesignDay
8,8.325425972513595
10,429803.5851013504
437,0.0
474,0.0
2,1, 7,21, 0, 4,40.00,50.00,SummerDesignDay
8,8.294868186717855
10,429803.5851013504
437,0.0
474,0.0
2,1, 7,21, 0, 4,50.00,60.00,SummerDesignDay
8,8.264281455042731
10,429803.5851013504
437,0.0
474,0.0
2,1, 7,21, 0, 4, 0.00,60.00,SummerDesignDay
243,23.852552228467706
283,19.01037347833178
323,22.065301016452179
2,1, 7,21, 0, 5, 0.00,10.00,SummerDesignDay
8,8.243873510705246
10,429803.5851013504
437,0.0
474,0.0
2,1, 7,21, 0, 5,10.00,20.00,SummerDesignDay
8,8.223447913503242
10,429803.5851013504
437,0.0
474,0.0
2,1, 7,21, 0, 5,20.00,30.00,SummerDesignDay
8,8.203010922189153
10,429803.5851013504
437,0.0
474,0.0
2,1, 7,21, 0, 5,30.00,40.00,SummerDesignDay
8,8.182556651776391
10,429803.5851013504
437,0.0
474,0.0
2,1, 7,21, 0, 5,40.00,50.00,SummerDesignDay
8,8.162091031899337
10,429803.5851013504
437,0.0
474,0.0
2,1, 7,21, 0, 5,50.00,60.00,SummerDesignDay
8,8.141607956176271
10,429803.5851013504
437,0.0
474,0.0
2,1, 7,21, 0, 5, 0.00,60.00,SummerDesignDay
243,23.48244413873717
283,18.60725114917464
323,21.691731120560389
2,1, 7,21, 0, 6, 0.00,10.00,SummerDesignDay
8,8.162091031899337
10,429803.5851013504
437,0.0
474,0.0
2,1, 7,21, 0, 6,10.00,20.00,SummerDesignDay
8,8.182556651776391
10,429803.5851013504
437,0.0
474,0.0
2,1, 7,21, 0, 6,20.00,30.00,SummerDesignDay
8,8.203010922189153
10,429803.5851013504
437,0.0
474,0.0
2,1, 7,21, 0, 6,30.00,40.00,SummerDesignDay
8,8.223447913503242
10,429803.5851013504
437,0.0
474,0.0
2,1, 7,21, 0, 6,40.00,50.00,SummerDesignDay
8,8.243873510705246
10,429803.5851013504
437,0.0
474,0.0
2,1, 7,21, 0, 6,50.00,60.00,SummerDesignDay
8,8.264281455042731
10,429803.5851013504
437,0.0
474,0.0
2,1, 7,21, 0, 6, 0.00,60.00,SummerDesignDay
243,23.325542425592784
283,18.612097356988458
323,21.45325059088493
2,1, 7,21, 0, 7, 0.00,10.00,SummerDesignDay
8,8.335601378958323
10,429803.5851013504
437,0.0
474,0.0
2,1, 7,21, 0, 7,10.00,20.00,SummerDesignDay
8,8.406746044412723
10,429803.5851013504
437,0.0
474,0.0
2,1, 7,21, 0, 7,20.00,30.00,SummerDesignDay
8,8.477719486378878
10,429803.5851013504
437,0.0
474,0.0
2,1, 7,21, 0, 7,30.00,40.00,SummerDesignDay
8,8.54851569096514
10,429803.5851013504
437,0.0
474,0.0
2,1, 7,21, 0, 7,40.00,50.00,SummerDesignDay
8,8.61913860111238
10,429803.5851013504
437,0.0
474,0.0
2,1, 7,21, 0, 7,50.00,60.00,SummerDesignDay
8,8.689588437854562
10,429803.5851013504
437,0.0
474,0.0
2,1, 7,21, 0, 7, 0.00,60.00,SummerDesignDay
243,23.478622744785665
283,19.194728004600476
323,21.433364812621709
2,1, 7,21, 0, 8, 0.00,10.00,SummerDesignDay
8,8.85996572767301
10,429803.5851013504
437,0.0
474,0.0
2,1, 7,21, 0, 8,10.00,20.00,SummerDesignDay
8,9.029339776292629
10,429803.5851013504
437,0.0
474,0.0
2,1, 7,21, 0, 8,20.00,30.00,SummerDesignDay
8,9.197713010531788
10,429803.5851013504
437,0.0
474,0.0
2,1, 7,21, 0, 8,30.00,40.00,SummerDesignDay
8,9.365096812375848
10,429803.5851013504
437,0.0
474,0.0
2,1, 7,21, 0, 8,40.00,50.00,SummerDesignDay
8,9.531503361841422
10,429803.5851013504
437,0.0
474,0.0
2,1, 7,21, 0, 8,50.00,60.00,SummerDesignDay
8,9.696928185032912
10,429803.5851013504
437,0.0
474,0.0
2,1, 7,21, 0, 8, 0.00,60.00,SummerDesignDay
243,23.78871656186513
283,20.173744524839294
323,21.727031346748065
2,1, 7,21, 0, 9, 0.00,10.00,SummerDesignDay
8,9.880690526256489
10,429803.5851013504
437,0.0
474,0.0
2,1, 7,21, 0, 9,10.00,20.00,SummerDesignDay
8,10.063247768633849
10,429803.5851013504
437,0.0
474,0.0
2,1, 7,21, 0, 9,20.00,30.00,SummerDesignDay
8,10.244637637530082
10,429803.5851013504
437,0.0
474,0.0
2,1, 7,21, 0, 9,30.00,40.00,SummerDesignDay
8,10.424848773563947
10,429803.5851013504
437,0.0
474,0.0
2,1, 7,21, 0, 9,40.00,50.00,SummerDesignDay
8,10.603898948792967
10,429803.5851013504
437,0.0
474,0.0
2,1, 7,21, 0, 9,50.00,60.00,SummerDesignDay
8,10.781815460410736
10,429803.5851013504
437,0.0
474,0.0
2,1, 7,21, 0, 9, 0.00,60.00,SummerDesignDay
243,24.382856439037338
283,21.529885734333687
323,22.33479936068298
2,1, 7,21, 0,10, 0.00,10.00,SummerDesignDay
8,10.940027839575924
10,2149017.9255067517
437,0.0
474,0.0
2,1, 7,21, 0,10,10.00,20.00,SummerDesignDay
8,11.097348520032867
10,2149017.9255067517
437,0.0
474,0.0
2,1, 7,21, 0,10,20.00,30.00,SummerDesignDay
8,11.253779599231992
10,2149017.9255067517
437,0.0
474,0.0
2,1, 7,21, 0,10,30.00,40.00,SummerDesignDay
8,11.409321810927997
10,2149017.9255067517
437,0.0
474,93822.72098630766
2,1, 7,21, 0,10,40.00,50.00,SummerDesignDay
8,11.563977235983597
10,2149017.9255067517
437,0.0
474,214149.76734489745
2,1, 7,21, 0,10,50.00,60.00,SummerDesignDay
8,11.717775704590944
10,2149017.9255067517
437,0.0
474,253895.02074765467
2,1, 7,21, 0,10, 0.00,60.00,SummerDesignDay
243,25.075868201493937
283,23.22900867136136
323,23.73344245872976
2,1, 7,21, 0,11, 0.00,10.00,SummerDesignDay
8,11.852759001366481
10,3008625.0957094526
437,0.0
474,1408269.846863591
2,1, 7,21, 0,11,10.00,20.00,SummerDesignDay
8,11.987076432520589
10,3008625.0957094526
437,0.0
474,1757312.3130185118
2,1, 7,21, 0,11,20.00,30.00,SummerDesignDay
8,12.120732532949499
10,3008625.0957094526
437,0.0
474,2175714.063795443
2,1, 7,21, 0,11,30.00,40.00,SummerDesignDay
8,12.253732751241758
10,3008625.0957094526
437,0.0
474,2588731.662058256
2,1, 7,21, 0,11,40.00,50.00,SummerDesignDay
8,12.386082023068124
10,3008625.0957094526
437,0.0
474,2979142.1245682395
2,1, 7,21, 0,11,50.00,60.00,SummerDesignDay
8,12.51778518418237
10,3008625.0957094526
437,0.0
474,3360975.718287912
2,1, 7,21, 0,11, 0.00,60.00,SummerDesignDay
243,25.871556693143164
283,23.994849018065094
323,23.999998123566248
2,1, 7,21, 0,12, 0.00,10.00,SummerDesignDay
8,12.605223732548529
10,3868232.265912153
437,0.0
474,4416321.071206617
2,1, 7,21, 0,12,10.00,20.00,SummerDesignDay
8,12.692391267573014
10,3868232.265912153
437,0.0
474,4726388.890937265
2,1, 7,21, 0,12,20.00,30.00,SummerDesignDay
8,12.779273250801264
10,3868232.265912153
437,0.0
474,5010093.517128249
2,1, 7,21, 0,12,30.00,40.00,SummerDesignDay
8,12.865866103603099
10,3868232.265912153
437,0.0
474,5296590.047642117
2,1, 7,21, 0,12,40.00,50.00,SummerDesignDay
8,12.95219170368721
10,3868232.265912153
437,0.0
474,5586532.315517198
2,1, 7,21, 0,12,50.00,60.00,SummerDesignDay
8,13.038236398727048
10,3868232.265912153
437,0.0
474,5879136.812595555
2,1, 7,21, 0,12, 0.00,60.00,SummerDesignDay
243,26.560462675039888
283,23.999999420139774
323,23.99999999999834
2,1, 7,21, 0,13, 0.00,10.00,SummerDesignDay
8,13.106863323671514
10,3868232.265912153
437,0.0
474,6683595.672513165
2,1, 7,21, 0,13,10.00,20.00,SummerDesignDay
8,13.175322752935689
10,3868232.265912153
437,0.0
474,6946892.152565235
2,1, 7,21, 0,13,20.00,30.00,SummerDesignDay
8,13.243607077052833
10,3868232.265912153
437,0.0
474,7197237.8736845669
2,1, 7,21, 0,13,30.00,40.00,SummerDesignDay
8,13.311716761967764
10,3868232.265912153
437,0.0
474,7441028.416087394
2,1, 7,21, 0,13,40.00,50.00,SummerDesignDay
8,13.379655600288534
10,3868232.265912153
437,0.0
474,7680739.976866881
2,1, 7,21, 0,13,50.00,60.00,SummerDesignDay
8,13.447417992098993
10,3868232.265912153
437,0.0
474,7922635.10317614
2,1, 7,21, 0,13, 0.00,60.00,SummerDesignDay
243,27.105988981163823
283,23.999999999939467
323,24.000000000000015
2,1, 7,21, 0,14, 0.00,10.00,SummerDesignDay
8,13.48967636106858
10,3868232.265912153
437,0.0
474,7950455.2427509189
2,1, 7,21, 0,14,10.00,20.00,SummerDesignDay
8,13.531879484215902
10,3868232.265912153
437,0.0
474,8109008.726821646
2,1, 7,21, 0,14,20.00,30.00,SummerDesignDay
8,13.574007141128604
10,3868232.265912153
437,0.0
474,8267886.136615504
2,1, 7,21, 0,14,30.00,40.00,SummerDesignDay
8,13.616064464404
10,3868232.265912153
437,0.0
474,8429332.72528797
2,1, 7,21, 0,14,40.00,50.00,SummerDesignDay
8,13.658067092741993
10,3868232.265912153
437,0.0
474,8596869.53530538
2,1, 7,21, 0,14,50.00,60.00,SummerDesignDay
8,13.699994511440187
10,3868232.265912153
437,0.0
474,8769585.110581119
2,1, 7,21, 0,14, 0.00,60.00,SummerDesignDay
243,27.508090507153186
283,24.000000000000026
323,24.000000000000015
2,1, 7,21, 0,15, 0.00,10.00,SummerDesignDay
8,13.699994511440187
10,3868232.265912153
437,0.0
474,8413290.025915638
2,1, 7,21, 0,15,10.00,20.00,SummerDesignDay
8,13.699994511440187
10,3868232.265912153
437,0.0
474,8471594.846173592
2,1, 7,21, 0,15,20.00,30.00,SummerDesignDay
8,13.699994511440187
10,3868232.265912153
437,0.0
474,8544372.282459945
2,1, 7,21, 0,15,30.00,40.00,SummerDesignDay
8,13.699994511440187
10,3868232.265912153
437,0.0
474,8624865.87823412
2,1, 7,21, 0,15,40.00,50.00,SummerDesignDay
8,13.699994511440187
10,3868232.265912153
437,0.0
474,8709870.078060285
2,1, 7,21, 0,15,50.00,60.00,SummerDesignDay
8,13.699994511440187
10,3868232.265912153
437,0.0
474,8795996.064712845
2,1, 7,21, 0,15, 0.00,60.00,SummerDesignDay
243,27.744670049196274
283,24.000000000000005
323,23.99999999999999
2,1, 7,21, 0,16, 0.00,10.00,SummerDesignDay
8,13.649672482665246
10,3868232.265912153
437,0.0
474,8319875.116082916
2,1, 7,21, 0,16,10.00,20.00,SummerDesignDay
8,13.599254618304699
10,3868232.265912153
437,0.0
474,8248024.269397242
2,1, 7,21, 0,16,20.00,30.00,SummerDesignDay
8,13.548732274837317
10,3868232.265912153
437,0.0
474,8175623.717359693
2,1, 7,21, 0,16,30.00,40.00,SummerDesignDay
8,13.498121848998244
10,3868232.265912153
437,0.0
474,8095814.391166402
2,1, 7,21, 0,16,40.00,50.00,SummerDesignDay
8,13.447417992098993
10,3868232.265912153
437,0.0
474,8017247.774431093
2,1, 7,21, 0,16,50.00,60.00,SummerDesignDay
8,13.396613561947288
10,3868232.265912153
437,0.0
474,7928131.9695947249
2,1, 7,21, 0,16, 0.00,60.00,SummerDesignDay
243,27.795128145275684
283,24.000000000000055
323,24.000000000000005
2,1, 7,21, 0,17, 0.00,10.00,SummerDesignDay
8,13.328721556799375
10,3868232.265912153
437,0.0
474,7785769.948199993
2,1, 7,21, 0,17,10.00,20.00,SummerDesignDay
8,13.260655497638722
10,3868232.265912153
437,0.0
474,7639269.054774801
2,1, 7,21, 0,17,20.00,30.00,SummerDesignDay
8,13.192415093565853
10,3868232.265912153
437,0.0
474,7491602.916810756
2,1, 7,21, 0,17,30.00,40.00,SummerDesignDay
8,13.1239959996646
10,3868232.265912153
437,0.0
474,7342630.110911211
2,1, 7,21, 0,17,40.00,50.00,SummerDesignDay
8,13.055404330198125
10,3868232.265912153
437,0.0
474,7191849.760551885
2,1, 7,21, 0,17,50.00,60.00,SummerDesignDay
8,12.986636312061594
10,3868232.265912153
437,0.0
474,7037968.635254685
2,1, 7,21, 0,17, 0.00,60.00,SummerDesignDay
243,27.659813277578853
283,24.000000000000015
323,24.00000000000001
2,1, 7,21, 0,18, 0.00,10.00,SummerDesignDay
8,12.900433778114536
10,3868232.265912153
437,0.0
474,6972761.863766922
2,1, 7,21, 0,18,10.00,20.00,SummerDesignDay
8,12.813944208572046
10,3868232.265912153
437,0.0
474,6764986.351459948
2,1, 7,21, 0,18,20.00,30.00,SummerDesignDay
8,12.72717130942231
10,3868232.265912153
437,0.0
474,6547965.713520585
2,1, 7,21, 0,18,30.00,40.00,SummerDesignDay
8,12.640128941445754
10,3868232.265912153
437,0.0
474,6326264.710958146
2,1, 7,21, 0,18,40.00,50.00,SummerDesignDay
8,12.552794961087115
10,3868232.265912153
437,0.0
474,6096895.243009868
2,1, 7,21, 0,18,50.00,60.00,SummerDesignDay
8,12.465173246226799
10,3868232.265912153
437,0.0
474,5863245.724464449
2,1, 7,21, 0,18, 0.00,60.00,SummerDesignDay
243,27.36017286262126
283,24.000000000000026
323,24.0
2,1, 7,21, 0,19, 0.00,10.00,SummerDesignDay
8,12.333221291970667
10,3868232.265912153
437,0.0
474,5925979.328624457
2,1, 7,21, 0,19,10.00,20.00,SummerDesignDay
8,12.200612095313528
10,3868232.265912153
437,0.0
474,5569522.948266238
2,1, 7,21, 0,19,20.00,30.00,SummerDesignDay
8,12.067350167237623
10,3868232.265912153
437,0.0
474,5193724.033395587
2,1, 7,21, 0,19,30.00,40.00,SummerDesignDay
8,11.933430192371139
10,3868232.265912153
437,0.0
474,4806374.851045381
2,1, 7,21, 0,19,40.00,50.00,SummerDesignDay
8,11.798846978333849
10,3868232.265912153
437,0.0
474,4408427.34030197
2,1, 7,21, 0,19,50.00,60.00,SummerDesignDay
8,11.66359551943337
10,3868232.265912153
437,0.0
474,4000429.8624218518
2,1, 7,21, 0,19, 0.00,60.00,SummerDesignDay
243,26.877394664965924
283,24.000000000000019
323,24.000000000000047
2,1, 7,21, 0,20, 0.00,10.00,SummerDesignDay
8,11.563977235983597
10,3868232.265912153
437,0.0
474,4095122.743040248
2,1, 7,21, 0,20,10.00,20.00,SummerDesignDay
8,11.4640075015588
10,3868232.265912153
437,0.0
474,3769035.806952538
2,1, 7,21, 0,20,20.00,30.00,SummerDesignDay
8,11.363658737456776
10,3868232.265912153
437,0.0
474,3423500.1497260157
2,1, 7,21, 0,20,30.00,40.00,SummerDesignDay
8,11.262954363511572
10,3868232.265912153
437,0.0
474,3065519.5947701234
2,1, 7,21, 0,20,40.00,50.00,SummerDesignDay
8,11.161866330679086
10,3868232.265912153
437,0.0
474,2695443.528154726
2,1, 7,21, 0,20,50.00,60.00,SummerDesignDay
8,11.060418956681522
10,3868232.265912153
437,0.0
474,2309361.044219902
2,1, 7,21, 0,20, 0.00,60.00,SummerDesignDay
243,26.347194212681463
283,24.000000000000033
323,24.000000000000019
2,1, 7,21, 0,21, 0.00,10.00,SummerDesignDay
8,10.977131286846806
10,3868232.265912153
437,0.0
474,1956111.5117512176
2,1, 7,21, 0,21,10.00,20.00,SummerDesignDay
8,10.893588371131973
10,3868232.265912153
437,0.0
474,1605184.543990918
2,1, 7,21, 0,21,20.00,30.00,SummerDesignDay
8,10.809795547365976
10,3868232.265912153
437,0.0
474,1271926.8606994688
2,1, 7,21, 0,21,30.00,40.00,SummerDesignDay
8,10.725757967997679
10,3868232.265912153
437,0.0
474,1133861.9265020404
2,1, 7,21, 0,21,40.00,50.00,SummerDesignDay
8,10.641455374902039
10,3868232.265912153
437,0.0
474,1105030.4017052209
2,1, 7,21, 0,21,50.00,60.00,SummerDesignDay
8,10.5568960542249
10,3868232.265912153
437,0.0
474,1076099.7795139566
2,1, 7,21, 0,21, 0.00,60.00,SummerDesignDay
243,25.837252911941524
283,23.915915091279954
323,24.0
2,1, 7,21, 0,22, 0.00,10.00,SummerDesignDay
8,10.472075212813188
10,3868232.265912153
437,0.0
474,1047192.5965417962
2,1, 7,21, 0,22,10.00,20.00,SummerDesignDay
8,10.386998798904175
10,3868232.265912153
437,0.0
474,1018227.2529938717
2,1, 7,21, 0,22,20.00,30.00,SummerDesignDay
8,10.30167171596391
10,3868232.265912153
437,0.0
474,989165.3361564212
2,1, 7,21, 0,22,30.00,40.00,SummerDesignDay
8,10.216073757639599
10,3868232.265912153
437,0.0
474,960002.4742877961
2,1, 7,21, 0,22,40.00,50.00,SummerDesignDay
8,10.130209237813493
10,3868232.265912153
437,0.0
474,930733.295957971
2,1, 7,21, 0,22,50.00,60.00,SummerDesignDay
8,10.04408463813862
10,3868232.265912153
437,0.0
474,901341.4080342257
2,1, 7,21, 0,22, 0.00,60.00,SummerDesignDay
243,25.39126986516168
283,23.298070515633467
323,23.99999999999999
2,1, 7,21, 0,23, 0.00,10.00,SummerDesignDay
8,9.976916887099673
10,3868232.265912153
437,0.0
474,811681.1365930566
2,1, 7,21, 0,23,10.00,20.00,SummerDesignDay
8,9.909588076458509
10,3868232.265912153
437,0.0
474,785516.743728717
2,1, 7,21, 0,23,20.00,30.00,SummerDesignDay
8,9.842097633454163
10,3868232.265912153
437,0.0
474,759936.1653899372
2,1, 7,21, 0,23,30.00,40.00,SummerDesignDay
8,9.77444528670805
10,3868232.265912153
437,0.0
474,734208.1773758503
2,1, 7,21, 0,23,40.00,50.00,SummerDesignDay
8,9.706630051061567
10,3868232.265912153
437,0.0
474,708509.9411024836
2,1, 7,21, 0,23,50.00,60.00,SummerDesignDay
8,9.638655537901255
10,3868232.265912153
437,0.0
474,682940.5445005545
2,1, 7,21, 0,23, 0.00,60.00,SummerDesignDay
243,25.144289481027113
283,22.472210889720328
323,24.000000000000015
2,1, 7,21, 0,24, 0.00,10.00,SummerDesignDay
8,9.570513192961173
10,3868232.265912153
437,22344.101784129532
474,613545.8008046037
2,1, 7,21, 0,24,10.00,20.00,SummerDesignDay
8,9.502206337774363
10,3868232.265912153
437,494273.0216762846
474,586636.3281870923
2,1, 7,21, 0,24,20.00,30.00,SummerDesignDay
8,9.433734346347242
10,3868232.265912153
437,539425.522465101
474,560322.7045885081
2,1, 7,21, 0,24,30.00,40.00,SummerDesignDay
8,9.365096812375848
10,3868232.265912153
437,750413.8224663982
474,534353.3883291417
2,1, 7,21, 0,24,40.00,50.00,SummerDesignDay
8,9.296293065048893
10,3868232.265912153
437,939177.4994044261
474,508873.0951987623
2,1, 7,21, 0,24,50.00,60.00,SummerDesignDay
8,9.227322555488419
10,3868232.265912153
437,1120908.7850141484
474,483839.2115792451
2,1, 7,21, 0,24, 0.00,60.00,SummerDesignDay
243,24.90717599847169
283,22.00905260366942
323,24.000000000000047
3,1, 7,21, 0,SummerDesignDay
244,25.08128159408494,21.837210746039394,16,20,28.547896133686537, 6,20
284,31.52892698415154,27.756228309823258,11,10,38.430580330502078, 6,10
324,29.770096550974743,27.598147486127219,10,40,32.04578831101268, 7,10
4,1, 7
7,19.677999999999995,12.999999999999999,21, 5,60,27.4,21,14,60
1,BANFF CS ANN HTG 99.6% CONDNS DB,  51.19,-115.55,  -7.00,1396.90
2,1,12,21, 0, 1, 0.00,10.00,WinterDesignDay
8,-30.3
10,3868232.265912153
437,52687978.513704057
474,0.0
2,1,12,21, 0, 1,10.00,20.00,WinterDesignDay
8,-30.3
10,3868232.265912153
437,52683139.19186533
474,0.0
2,1,12,21, 0, 1,20.00,30.00,WinterDesignDay
8,-30.3
10,3868232.265912153
437,52675842.810368258
474,0.0
2,1,12,21, 0, 1,30.00,40.00,WinterDesignDay
8,-30.3
10,3868232.265912153
437,52667989.87300661
474,0.0
2,1,12,21, 0, 1,40.00,50.00,WinterDesignDay
8,-30.3
10,3868232.265912153
437,52659799.21194768
474,0.0
2,1,12,21, 0, 1,50.00,60.00,WinterDesignDay
8,-30.3
10,3868232.265912153
437,52651428.58638718
474,0.0
2,1,12,21, 0, 1, 0.00,60.00,WinterDesignDay
243,14.089711403135004
283,21.99999999999997
323,21.999999999999998
2,1,12,21, 0, 2, 0.00,10.00,WinterDesignDay
8,-30.3
10,2149017.9255067517
437,53688774.93466419
474,0.0
2,1,12,21, 0, 2,10.00,20.00,WinterDesignDay
8,-30.3
10,2149017.9255067517
437,53771714.286363828
474,0.0
2,1,12,21, 0, 2,20.00,30.00,WinterDesignDay
8,-30.3
10,2149017.9255067517
437,53807083.745931837
474,0.0
2,1,12,21, 0, 2,30.00,40.00,WinterDesignDay
8,-30.3
10,2149017.9255067517
437,53833062.46832765
474,0.0
2,1,12,21, 0, 2,40.00,50.00,WinterDesignDay
8,-30.3
10,2149017.9255067517
437,53851943.16965291
474,0.0
2,1,12,21, 0, 2,50.00,60.00,WinterDesignDay
8,-30.3
10,2149017.9255067517
437,53865875.82085578
474,0.0
2,1,12,21, 0, 2, 0.00,60.00,WinterDesignDay
243,14.128544057951514
283,21.999999999999976
323,21.99999999999999
2,1,12,21, 0, 3, 0.00,10.00,WinterDesignDay
8,-30.3
10,429803.5851013504
437,39346156.909307759
474,0.0
2,1,12,21, 0, 3,10.00,20.00,WinterDesignDay
8,-30.3
10,429803.5851013504
437,45907903.21245685
474,0.0
2,1,12,21, 0, 3,20.00,30.00,WinterDesignDay
8,-30.3
10,429803.5851013504
437,44441276.13980295
474,0.0
2,1,12,21, 0, 3,30.00,40.00,WinterDesignDay
8,-30.3
10,429803.5851013504
437,45972028.00584834
474,0.0
2,1,12,21, 0, 3,40.00,50.00,WinterDesignDay
8,-30.3
10,429803.5851013504
437,46225120.40816827
474,0.0
2,1,12,21, 0, 3,50.00,60.00,WinterDesignDay
8,-30.3
10,429803.5851013504
437,46343190.38836697
474,0.0
2,1,12,21, 0, 3, 0.00,60.00,WinterDesignDay
243,14.126143121237825
283,18.036415724177613
323,18.09336970904977
2,1,12,21, 0, 4, 0.00,10.00,WinterDesignDay
8,-30.3
10,429803.5851013504
437,46432936.68753838
474,0.0
2,1,12,21, 0, 4,10.00,20.00,WinterDesignDay
8,-30.3
10,429803.5851013504
437,46507792.34655926
474,0.0
2,1,12,21, 0, 4,20.00,30.00,WinterDesignDay
8,-30.3
10,429803.5851013504
437,46570958.88980392
474,0.0
2,1,12,21, 0, 4,30.00,40.00,WinterDesignDay
8,-30.3
10,429803.5851013504
437,46629186.85869838
474,0.0
2,1,12,21, 0, 4,40.00,50.00,WinterDesignDay
8,-30.3
10,429803.5851013504
437,46681484.48993139
474,0.0
2,1,12,21, 0, 4,50.00,60.00,WinterDesignDay
8,-30.3
10,429803.5851013504
437,46728620.02534205
474,0.0
2,1,12,21, 0, 4, 0.00,60.00,WinterDesignDay
243,13.978714082270927
283,18.000000696820128
323,18.00000000279972
2,1,12,21, 0, 5, 0.00,10.00,WinterDesignDay
8,-30.3
10,429803.5851013504
437,46774852.73454755
474,0.0
2,1,12,21, 0, 5,10.00,20.00,WinterDesignDay
8,-30.3
10,429803.5851013504
437,46818700.56781709
474,0.0
2,1,12,21, 0, 5,20.00,30.00,WinterDesignDay
8,-30.3
10,429803.5851013504
437,46860713.01722037
474,0.0
2,1,12,21, 0, 5,30.00,40.00,WinterDesignDay
8,-30.3
10,429803.5851013504
437,46901090.635963197
474,0.0
2,1,12,21, 0, 5,40.00,50.00,WinterDesignDay
8,-30.3
10,429803.5851013504
437,46939540.97963474
474,0.0
2,1,12,21, 0, 5,50.00,60.00,WinterDesignDay
8,-30.3
10,429803.5851013504
437,46977290.481677819
474,0.0
2,1,12,21, 0, 5, 0.00,60.00,WinterDesignDay
243,13.738240687413283
283,18.00000000010023
323,18.000000000000005
2,1,12,21, 0, 6, 0.00,10.00,WinterDesignDay
8,-30.3
10,429803.5851013504
437,47014755.456849697
474,0.0
2,1,12,21, 0, 6,10.00,20.00,WinterDesignDay
8,-30.3
10,429803.5851013504
437,47051683.176057297
474,0.0
2,1,12,21, 0, 6,20.00,30.00,WinterDesignDay
8,-30.3
10,429803.5851013504
437,47088098.637805189
474,0.0
2,1,12,21, 0, 6,30.00,40.00,WinterDesignDay
8,-30.3
10,429803.5851013504
437,47123982.10842027
474,0.0
2,1,12,21, 0, 6,40.00,50.00,WinterDesignDay
8,-30.3
10,429803.5851013504
437,47159223.46171488
474,0.0
2,1,12,21, 0, 6,50.00,60.00,WinterDesignDay
8,-30.3
10,429803.5851013504
437,47194603.7833161
474,0.0
2,1,12,21, 0, 6, 0.00,60.00,WinterDesignDay
243,13.491778407176696
283,18.000000000000008
323,17.999999999999994
2,1,12,21, 0, 7, 0.00,10.00,WinterDesignDay
8,-30.3
10,429803.5851013504
437,47231410.95209779
474,0.0
2,1,12,21, 0, 7,10.00,20.00,WinterDesignDay
8,-30.3
10,429803.5851013504
437,47268347.930363919
474,0.0
2,1,12,21, 0, 7,20.00,30.00,WinterDesignDay
8,-30.3
10,429803.5851013504
437,47305400.47256102
474,0.0
2,1,12,21, 0, 7,30.00,40.00,WinterDesignDay
8,-30.3
10,429803.5851013504
437,47342509.20366295
474,0.0
2,1,12,21, 0, 7,40.00,50.00,WinterDesignDay
8,-30.3
10,429803.5851013504
437,47379627.887079279
474,0.0
2,1,12,21, 0, 7,50.00,60.00,WinterDesignDay
8,-30.3
10,429803.5851013504
437,47416719.93013153
474,0.0
2,1,12,21, 0, 7, 0.00,60.00,WinterDesignDay
243,13.256337706626577
283,17.99999999999999
323,17.999999999999998
2,1,12,21, 0, 8, 0.00,10.00,WinterDesignDay
8,-30.3
10,429803.5851013504
437,47453755.16718698
474,0.0
2,1,12,21, 0, 8,10.00,20.00,WinterDesignDay
8,-30.3
10,429803.5851013504
437,47490707.90590177
474,0.0
2,1,12,21, 0, 8,20.00,30.00,WinterDesignDay
8,-30.3
10,429803.5851013504
437,47527555.74734934
474,0.0
2,1,12,21, 0, 8,30.00,40.00,WinterDesignDay
8,-30.3
10,429803.5851013504
437,47564278.84553804
474,0.0
2,1,12,21, 0, 8,40.00,50.00,WinterDesignDay
8,-30.3
10,429803.5851013504
437,47600859.42060544
474,0.0
2,1,12,21, 0, 8,50.00,60.00,WinterDesignDay
8,-30.3
10,429803.5851013504
437,47637281.42328341
474,0.0
2,1,12,21, 0, 8, 0.00,60.00,WinterDesignDay
243,13.034750873402692
283,17.999999999999998
323,17.999999999999998
2,1,12,21, 0, 9, 0.00,10.00,WinterDesignDay
8,-30.3
10,429803.5851013504
437,55122670.05007615
474,0.0
2,1,12,21, 0, 9,10.00,20.00,WinterDesignDay
8,-30.3
10,429803.5851013504
437,49145949.07793376
474,0.0
2,1,12,21, 0, 9,20.00,30.00,WinterDesignDay
8,-30.3
10,429803.5851013504
437,53595900.40096316
474,0.0
2,1,12,21, 0, 9,30.00,40.00,WinterDesignDay
8,-30.3
10,429803.5851013504
437,52500676.236466
474,0.0
2,1,12,21, 0, 9,40.00,50.00,WinterDesignDay
8,-30.3
10,429803.5851013504
437,52434339.01408397
474,0.0
2,1,12,21, 0, 9,50.00,60.00,WinterDesignDay
8,-30.3
10,429803.5851013504
437,52399213.5958295
474,0.0
2,1,12,21, 0, 9, 0.00,60.00,WinterDesignDay
243,12.838991402441799
283,19.996860727494945
323,19.99706960517506
2,1,12,21, 0,10, 0.00,10.00,WinterDesignDay
8,-30.3
10,2149017.9255067517
437,59643594.673619989
474,0.0
2,1,12,21, 0,10,10.00,20.00,WinterDesignDay
8,-30.3
10,2149017.9255067517
437,53407357.647991988
474,0.0
2,1,12,21, 0,10,20.00,30.00,WinterDesignDay
8,-30.3
10,2149017.9255067517
437,57654635.28850659
474,0.0
2,1,12,21, 0,10,30.00,40.00,WinterDesignDay
8,-30.3
10,2149017.9255067517
437,56462392.73204991
474,0.0
2,1,12,21, 0,10,40.00,50.00,WinterDesignDay
8,-30.3
10,2149017.9255067517
437,56305516.647371139
474,0.0
2,1,12,21, 0,10,50.00,60.00,WinterDesignDay
8,-30.3
10,2149017.9255067517
437,56194728.38388192
474,0.0
2,1,12,21, 0,10, 0.00,60.00,WinterDesignDay
243,12.724007598396092
283,21.996531384502025
323,21.996789598254023
2,1,12,21, 0,11, 0.00,10.00,WinterDesignDay
8,-30.3
10,3008625.0957094526
437,55575580.40463458
474,0.0
2,1,12,21, 0,11,10.00,20.00,WinterDesignDay
8,-30.3
10,3008625.0957094526
437,55457633.12628814
474,0.0
2,1,12,21, 0,11,20.00,30.00,WinterDesignDay
8,-30.3
10,3008625.0957094526
437,55376742.385199848
474,0.0
2,1,12,21, 0,11,30.00,40.00,WinterDesignDay
8,-30.3
10,3008625.0957094526
437,55308704.398105729
474,0.0
2,1,12,21, 0,11,40.00,50.00,WinterDesignDay
8,-30.3
10,3008625.0957094526
437,55250516.68501443
474,0.0
2,1,12,21, 0,11,50.00,60.00,WinterDesignDay
8,-30.3
10,3008625.0957094526
437,55199429.08437365
474,0.0
2,1,12,21, 0,11, 0.00,60.00,WinterDesignDay
243,12.756797241587622
283,21.999999999999984
323,22.000000000000019
2,1,12,21, 0,12, 0.00,10.00,WinterDesignDay
8,-30.3
10,3868232.265912153
437,54308671.55865596
474,0.0
2,1,12,21, 0,12,10.00,20.00,WinterDesignDay
8,-30.3
10,3868232.265912153
437,54209838.580787319
474,0.0
2,1,12,21, 0,12,20.00,30.00,WinterDesignDay
8,-30.3
10,3868232.265912153
437,54143658.3531832
474,0.0
2,1,12,21, 0,12,30.00,40.00,WinterDesignDay
8,-30.3
10,3868232.265912153
437,54085530.1507769
474,0.0
2,1,12,21, 0,12,40.00,50.00,WinterDesignDay
8,-30.3
10,3868232.265912153
437,54033790.86355441
474,0.0
2,1,12,21, 0,12,50.00,60.00,WinterDesignDay
8,-30.3
10,3868232.265912153
437,53986662.06842392
474,0.0
2,1,12,21, 0,12, 0.00,60.00,WinterDesignDay
243,12.876102603615922
283,21.999999999999984
323,21.999999999999987
2,1,12,21, 0,13, 0.00,10.00,WinterDesignDay
8,-30.3
10,3868232.265912153
437,53313972.35263567
474,0.0
2,1,12,21, 0,13,10.00,20.00,WinterDesignDay
8,-30.3
10,3868232.265912153
437,53254207.470532927
474,0.0
2,1,12,21, 0,13,20.00,30.00,WinterDesignDay
8,-30.3
10,3868232.265912153
437,53205792.686259169
474,0.0
2,1,12,21, 0,13,30.00,40.00,WinterDesignDay
8,-30.3
10,3868232.265912153
437,53161229.48606066
474,0.0
2,1,12,21, 0,13,40.00,50.00,WinterDesignDay
8,-30.3
10,3868232.265912153