Program Version,EnergyPlus, Version 8.9.0-497bb3e71c, YMD=2018.06.06 17:03
1,5,Environment Title[],Latitude[deg],Longitude[deg],Time Zone[],Elevation[m]
2,8,Day of Simulation[],Month[],Day of Month[],DST Indicator[1=yes 0=no],Hour[],StartMinute[],EndMinute[],DayType
3,5,Cumulative Day of Simulation[],Month[],Day of Month[],DST Indicator[1=yes 0=no],DayType  ! When Daily Report Variables Requested
4,2,Cumulative Days of Simulation[],Month[]  ! When Monthly Report Variables Requested
5,1,Cumulative Days of Simulation[] ! When Run Period Report Variables Requested
6,1,Calendar Year of Simulation[] ! When Annual Report Variables Requested
7,1,Environment,Site Outdoor Air Wetbulb Temperature [C] !TimeStep
9,1,Electricity:Facility [J] !TimeStep
End of Data Dictionary
1,RUN PERIOD 1,  39.74,-105.18,  -7.00,1829.00
2,1, 1, 1, 0, 1, 0.00,10.00,Sunday
7,-6.973940117493446
9,1800000.0
2,1, 1, 1, 0, 1,10.00,20.00,Sunday
7,-6.271821536364592
9,1800000.0
2,1, 1, 1, 0, 1,20.00,30.00,Sunday
7,-5.565409796966274
9,1800000.0
2,1, 1, 1, 0, 1,30.00,40.00,Sunday
7,-4.854581801922019
9,1800000.0
2,1, 1, 1, 0, 1,40.00,50.00,Sunday
7,-4.139236681433416
9,1800000.0
2,1, 1, 1, 0, 1,50.00,60.00,Sunday
7,-3.419286834134899
9,1800000.0
2,1, 1, 1, 0, 2, 0.00,10.00,Sunday
7,-3.5515459508402338
9,1800000.0
2,1, 1, 1, 0, 2,10.00,20.00,Sunday
7,-3.6843963085650137
9,1800000.0
2,1, 1, 1, 0, 2,20.00,30.00,Sunday
7,-3.817843367669093
9,1800000.0
2,1, 1, 1, 0, 2,30.00,40.00,Sunday
7,-3.951884422710694
9,1800000.0
2,1, 1, 1, 0, 2,40.00,50.00,Sunday
7,-4.086527551037716
9,1800000.0
2,1, 1, 1, 0, 2,50.00,60.00,Sunday
7,-4.221775407058899
9,1800000.0
2,1, 1, 1, 0, 3, 0.00,10.00,Sunday
7,-4.377716439375085
9,1800000.0
2,1, 1, 1, 0, 3,10.00,20.00,Sunday
7,-4.53369384605596
9,1800000.0
2,1, 1, 1, 0, 3,20.00,30.00,Sunday
7,-4.6897066083278029
9,1800000.0
2,1, 1, 1, 0, 3,30.00,40.00,Sunday
7,-4.845761418515632
9,1800000.0
2,1, 1, 1, 0, 3,40.00,50.00,Sunday
7,-5.001848909271323
9,1800000.0
2,1, 1, 1, 0, 3,50.00,60.00,Sunday
7,-5.157976414438575
9,1800000.0
2,1, 1, 1, 0, 4, 0.00,10.00,Sunday
7,-4.836758793179738
9,1800000.0
2,1, 1, 1, 0, 4,10.00,20.00,Sunday
7,-4.515371837942985
9,1800000.0
2,1, 1, 1, 0, 4,20.00,30.00,Sunday
7,-4.193806913073069
9,1800000.0
2,1, 1, 1, 0, 4,30.00,40.00,Sunday
7,-3.8720543168411885
9,1800000.0
2,1, 1, 1, 0, 4,40.00,50.00,Sunday
7,-3.5501072144141676
9,1800000.0
2,1, 1, 1, 0, 4,50.00,60.00,Sunday
7,-3.2279582888826376
9,1800000.0
2,1, 1, 1, 0, 5, 0.00,10.00,Sunday
7,-3.1613817383533027
9,1800000.0
2,1, 1, 1, 0, 5,10.00,20.00,Sunday
7,-3.0949687344402454
9,1800000.0
2,1, 1, 1, 0, 5,20.00,30.00,Sunday
7,-3.0287200684637347
9,1800000.0
2,1, 1, 1, 0, 5,30.00,40.00,Sunday
7,-2.9626418845155344
9,1800000.0
2,1, 1, 1, 0, 5,40.00,50.00,Sunday
7,-2.896725603713264
9,1800000.0
2,1, 1, 1, 0, 5,50.00,60.00,Sunday
7,-2.8309721500467726
9,1800000.0
2,1, 1, 1, 0, 6, 0.00,10.00,Sunday
7,-2.6050621688611619
9,1800000.0
2,1, 1, 1, 0, 6,10.00,20.00,Sunday
7,-2.3782226997714179
9,1800000.0
2,1, 1, 1, 0, 6,20.00,30.00,Sunday
7,-2.150457122377141
9,1800000.0
2,1, 1, 1, 0, 6,30.00,40.00,Sunday
7,-1.9217785678940507
9,1800000.0
2,1, 1, 1, 0, 6,40.00,50.00,Sunday
7,-1.6921827171936657
9,1800000.0
2,1, 1, 1, 0, 6,50.00,60.00,Sunday
7,-1.4616812788644365
9,1800000.0
2,1, 1, 1, 0, 7, 0.00,10.00,Sunday
7,-1.3841568576301538
9,1800000.0
2,1, 1, 1, 0, 7,10.00,20.00,Sunday
7,-1.3068632986815104
9,1800000.0
2,1, 1, 1, 0, 7,20.00,30.00,Sunday
7,-1.2298039231904539
9,1800000.0
2,1, 1, 1, 0, 7,30.00,40.00,Sunday
7,-1.1529773155987129
9,1800000.0
2,1, 1, 1, 0, 7,40.00,50.00,Sunday
7,-1.0763738054652213
9,1800000.0
2,1, 1, 1, 0, 7,50.00,60.00,Sunday
7,-1.0000017668198745
9,1800000.0
2,1, 1, 1, 0, 8, 0.00,10.00,Sunday
7,-1.0000049814285852
9,1800000.0
2,1, 1, 1, 0, 8,10.00,20.00,Sunday
7,-1.0000042723447578
9,1800000.0
2,1, 1, 1, 0, 8,20.00,30.00,Sunday
7,-1.0000040574300704
9,0.0
2,1, 1, 1, 0, 8,30.00,40.00,Sunday
7,-1.0000038595204875
9,0.0
2,1, 1, 1, 0, 8,40.00,50.00,Sunday
7,-1.0000046011594615
9,0.0
2,1, 1, 1, 0, 8,50.00,60.00,Sunday
7,-1.00000097633094
9,0.0
2,1, 1, 1, 0, 9, 0.00,10.00,Sunday
7,-0.9102305371391541
9,0.0
2,1, 1, 1, 0, 9,10.00,20.00,Sunday
7,-0.8218447557629888
9,0.0
2,1, 1, 1, 0, 9,20.00,30.00,Sunday
7,-0.7348569027070951
9,0.0
2,1, 1, 1, 0, 9,30.00,40.00,Sunday
7,-0.6492985018395616
9,0.0
2,1, 1, 1, 0, 9,40.00,50.00,Sunday
7,-0.5651686631052183
9,0.0
2,1, 1, 1, 0, 9,50.00,60.00,Sunday
7,-0.4819545901414183
9,0.0
2,1, 1, 1, 0,10, 0.00,10.00,Sunday
7,-0.2978136794350742
9,0.0
2,1, 1, 1, 0,10,10.00,20.00,Sunday
7,-0.11791051147339618
9,0.0
2,1, 1, 1, 0,10,20.00,30.00,Sunday
7,0.060630173520451417
9,0.0
2,1, 1, 1, 0,10,30.00,40.00,Sunday
7,0.24252899428457537
9,0.0
2,1, 1, 1, 0,10,40.00,50.00,Sunday
7,0.4198555632494961
9,0.0
2,1, 1, 1, 0,10,50.00,60.00,Sunday
7,0.5925343269400163
9,0.0
2,1, 1, 1, 0,11, 0.00,10.00,Sunday
7,0.5925343269400163
9,0.0
2,1, 1, 1, 0,11,10.00,20.00,Sunday
7,0.5925343269400163
9,0.0
2,1, 1, 1, 0,11,20.00,30.00,Sunday
7,0.5925343269400163
9,0.0
2,1, 1, 1, 0,11,30.00,40.00,Sunday
7,0.5925343269400163
9,0.0
2,1, 1, 1, 0,11,40.00,50.00,Sunday
7,0.5925343269400163
9,0.0
2,1, 1, 1, 0,11,50.00,60.00,Sunday
7,0.5925343269400163
9,0.0
2,1, 1, 1, 0,12, 0.00,10.00,Sunday
7,0.42368377040141927
9,0.0
2,1, 1, 1, 0,12,10.00,20.00,Sunday
7,0.25498334224766569
9,0.0
2,1, 1, 1, 0,12,20.00,30.00,Sunday
7,0.08642951694546292
9,0.0
2,1, 1, 1, 0,12,30.00,40.00,Sunday
7,-0.07666222839627746
9,0.0
2,1, 1, 1, 0,12,40.00,50.00,Sunday
7,-0.2353063573168939
9,0.0
2,1, 1, 1, 0,12,50.00,60.00,Sunday
7,-0.39394423897577726
9,0.0
2,1, 1, 1, 0,13, 0.00,10.00,Sunday
7,-0.2750956198512537
9,0.0
2,1, 1, 1, 0,13,10.00,20.00,Sunday
7,-0.16258326804059895
9,0.0
2,1, 1, 1, 0,13,20.00,30.00,Sunday
7,-0.05656862163219949
9,0.0
2,1, 1, 1, 0,13,30.00,40.00,Sunday
7,0.04481338293092451
9,0.0
2,1, 1, 1, 0,13,40.00,50.00,Sunday
7,0.14310812709371588
9,0.0
2,1, 1, 1, 0,13,50.00,60.00,Sunday
7,0.23402953532608254
9,0.0
2,1, 1, 1, 0,14, 0.00,10.00,Sunday
7,0.07357624196445495
9,0.0
2,1, 1, 1, 0,14,10.00,20.00,Sunday
7,-0.08114327283738017
9,0.0
2,1, 1, 1, 0,14,20.00,30.00,Sunday
7,-0.23214870933341215
9,0.0
2,1, 1, 1, 0,14,30.00,40.00,Sunday
7,-0.38314333705135658
9,0.0
2,1, 1, 1, 0,14,40.00,50.00,Sunday
7,-0.5341256248388092
9,0.0
2,1, 1, 1, 0,14,50.00,60.00,Sunday
7,-0.6850995378604449
9,0.0
2,1, 1, 1, 0,15, 0.00,10.00,Sunday
7,-0.7656058858795802
9,0.0
2,1, 1, 1, 0,15,10.00,20.00,Sunday
7,-0.8471990198435812
9,0.0
2,1, 1, 1, 0,15,20.00,30.00,Sunday
7,-0.9298716878947768
9,0.0
2,1, 1, 1, 0,15,30.00,40.00,Sunday
7,-1.0136253930913859
9,0.0
2,1, 1, 1, 0,15,40.00,50.00,Sunday
7,-1.098434619965919
9,0.0
2,1, 1, 1, 0,15,50.00,60.00,Sunday
7,-1.184301677342069
9,0.0
2,1, 1, 1, 0,16, 0.00,10.00,Sunday
7,-1.184301677342069
9,0.0
2,1, 1, 1, 0,16,10.00,20.00,Sunday
7,-1.184301677342069
9,0.0
2,1, 1, 1, 0,16,20.00,30.00,Sunday
7,-1.184301677342069
9,0.0
2,1, 1, 1, 0,16,30.00,40.00,Sunday
7,-1.184301677342069
9,0.0
2,1, 1, 1, 0,16,40.00,50.00,Sunday
7,-1.184301677342069
9,0.0
2,1, 1, 1, 0,16,50.00,60.00,Sunday
7,-1.184301677342069
9,0.0
2,1, 1, 1, 0,17, 0.00,10.00,Sunday
7,-1.2714479079807768
9,0.0
2,1, 1, 1, 0,17,10.00,20.00,Sunday
7,-1.3596155805587252
9,0.0
2,1, 1, 1, 0,17,20.00,30.00,Sunday
7,-1.4487979349472145
9,0.0
2,1, 1, 1, 0,17,30.00,40.00,Sunday
7,-1.5389879174165587
9,0.0
2,1, 1, 1, 0,17,40.00,50.00,Sunday
7,-1.6301756504023364
9,1800000.0
2,1, 1, 1, 0,17,50.00,60.00,Sunday
7,-1.7223538875896927
9,1800000.0
2,1, 1, 1, 0,18, 0.00,10.00,Sunday
7,-1.8127144986440694
9,1800000.0
2,1, 1, 1, 0,18,10.00,20.00,Sunday
7,-1.9038662822770492
9,1800000.0
2,1, 1, 1, 0,18,20.00,30.00,Sunday
7,-1.9962407595414973
9,1800000.0
2,1, 1, 1, 0,18,30.00,40.00,Sunday
7,-2.0898289978820898
9,1800000.0
2,1, 1, 1, 0,18,40.00,50.00,Sunday
7,-2.184609762692831
9,1800000.0
2,1, 1, 1, 0,18,50.00,60.00,Sunday
7,-2.280571723877894
9,1800000.0
2,1, 1, 1, 0,19, 0.00,10.00,Sunday
7,-2.505789303010254
9,1800000.0
2,1, 1, 1, 0,19,10.00,20.00,Sunday
7,-2.730024765374252
9,1800000.0
2,1, 1, 1, 0,19,20.00,30.00,Sunday
7,-2.953273162549159
9,1800000.0
2,1, 1, 1, 0,19,30.00,40.00,Sunday
7,-3.175530617840416
9,1800000.0
2,1, 1, 1, 0,19,40.00,50.00,Sunday
7,-3.3967987406627166
9,1800000.0
2,1, 1, 1, 0,19,50.00,60.00,Sunday
7,-3.6170705659005257
9,1800000.0
2,1, 1, 1, 0,20, 0.00,10.00,Sunday
7,-3.922954611261489
9,1800000.0
2,1, 1, 1, 0,20,10.00,20.00,Sunday
7,-4.229020994269727
9,1800000.0
2,1, 1, 1, 0,20,20.00,30.00,Sunday
7,-4.535267794303457
9,1800000.0
2,1, 1, 1, 0,20,30.00,40.00,Sunday
7,-4.841702651007641
9,1800000.0
2,1, 1, 1, 0,20,40.00,50.00,Sunday
7,-5.148335169302151
9,1800000.0
2,1, 1, 1, 0,20,50.00,60.00,Sunday
7,-5.455167124241429
9,1800000.0
2,1, 1, 1, 0,21, 0.00,10.00,Sunday
7,-5.498615576496027
9,1800000.0
2,1, 1, 1, 0,21,10.00,20.00,Sunday
7,-5.544560278971792
9,1800000.0
2,1, 1, 1, 0,21,20.00,30.00,Sunday
7,-5.59295067658086
9,1800000.0
2,1, 1, 1, 0,21,30.00,40.00,Sunday
7,-5.643747899416631
9,1800000.0
2,1, 1, 1, 0,21,40.00,50.00,Sunday
7,-5.6969149150867299
9,1800000.0
2,1, 1, 1, 0,21,50.00,60.00,Sunday
7,-5.752410453553545
9,1800000.0
2,1, 1, 1, 0,22, 0.00,10.00,Sunday
7,-5.786709193232757
9,1800000.0
2,1, 1, 1, 0,22,10.00,20.00,Sunday
7,-5.8238609488945098
9,1800000.0
2,1, 1, 1, 0,22,20.00,30.00,Sunday
7,-5.863816646117242
9,1800000.0
2,1, 1, 1, 0,22,30.00,40.00,Sunday
7,-5.906521657085964
9,1800000.0
2,1, 1, 1, 0,22,40.00,50.00,Sunday
7,-5.951934740596565
9,1800000.0
2,1, 1, 1, 0,22,50.00,60.00,Sunday
7,-6.000002413087915
9,1800000.0
2,1, 1, 1, 0,23, 0.00,10.00,Sunday
7,-6.2830681072471219
9,1800000.0
2,1, 1, 1, 0,23,10.00,20.00,Sunday
7,-6.564351427025738
9,1800000.0
2,1, 1, 1, 0,23,20.00,30.00,Sunday
7,-6.843836719525001
9,1800000.0
2,1, 1, 1, 0,23,30.00,40.00,Sunday
7,-7.1215019450781729
9,1800000.0
2,1, 1, 1, 0,23,40.00,50.00,Sunday
7,-7.3973440023250929
9,1800000.0
2,1, 1, 1, 0,23,50.00,60.00,Sunday
7,-7.6713458205843569
9,1800000.0
2,1, 1, 1, 0,24, 0.00,10.00,Sunday
7,-7.671436269060243
9,1800000.0
2,1, 1, 1, 0,24,10.00,20.00,Sunday
7,-7.671526994514099
9,1800000.0
2,1, 1, 1, 0,24,20.00,30.00,Sunday
7,-7.671615016469109
9,1800000.0
2,1, 1, 1, 0,24,30.00,40.00,Sunday
7,-7.671703413575086
9,1800000.0
2,1, 1, 1, 0,24,40.00,50.00,Sunday
7,-7.671795106887687
9,1800000.0
2,1, 1, 1, 0,24,50.00,60.00,Sunday
7,-7.671881075096377
9,1800000.0
2,2, 1, 2, 0, 1, 0.00,10.00,Monday
7,-7.992210379248928
9,1800000.0
2,2, 1, 2, 0, 1,10.00,20.00,Monday
7,-8.312662113462333
9,1800000.0
2,2, 1, 2, 0, 1,20.00,30.00,Monday
7,-8.63324258501709
9,1800000.0
2,2, 1, 2, 0, 1,30.00,40.00,Monday
7,-8.953952418761017
9,1800000.0
2,2, 1, 2, 0, 1,40.00,50.00,Monday
7,-9.274798746030703
9,1800000.0
2,2, 1, 2, 0, 1,50.00,60.00,Monday
7,-9.595775299991569
9,1800000.0
2,2, 1, 2, 0, 2, 0.00,10.00,Monday
7,-9.712966163339273
9,1800000.0
2,2, 1, 2, 0, 2,10.00,20.00,Monday
7,-9.831151942393584
9,1800000.0
2,2, 1, 2, 0, 2,20.00,30.00,Monday
7,-9.950326091851219
9,1800000.0
2,2, 1, 2, 0, 2,30.00,40.00,Monday
7,-10.070464605369019
9,1800000.0
2,2, 1, 2, 0, 2,40.00,50.00,Monday
7,-10.1915620701234
9,1800000.0
2,2, 1, 2, 0, 2,50.00,60.00,Monday
7,-10.313612776221826
9,1800000.0
2,2, 1, 2, 0, 3, 0.00,10.00,Monday
7,-10.313612776221826
9,1800000.0
2,2, 1, 2, 0, 3,10.00,20.00,Monday
7,-10.313612776221826
9,1800000.0
2,2, 1, 2, 0, 3,20.00,30.00,Monday
7,-10.313612776221826
9,1800000.0
2,2, 1, 2, 0, 3,30.00,40.00,Monday
7,-10.313612776221826
9,1800000.0
2,2, 1, 2, 0, 3,40.00,50.00,Monday
7,-10.313612776221826
9,1800000.0
2,2, 1, 2, 0, 3,50.00,60.00,Monday
7,-10.313612776221826
9,1800000.0
2,2, 1, 2, 0, 4, 0.00,10.00,Monday
7,-10.47700110066956
9,1800000.0
2,2, 1, 2, 0, 4,10.00,20.00,Monday
7,-10.64040977931405
9,1800000.0
2,2, 1, 2, 0, 4,20.00,30.00,Monday
7,-10.803839211712445
9,1800000.0
2,2, 1, 2, 0, 4,30.00,40.00,Monday
7,-10.967284862049525
9,1800000.0
2,2, 1, 2, 0, 4,40.00,50.00,Monday
7,-11.130752047885503
9,1800000.0
2,2, 1, 2, 0, 4,50.00,60.00,Monday
7,-11.294239969251402
9,1800000.0
2,2, 1, 2, 0, 5, 0.00,10.00,Monday
7,-11.45774568817471
9,1800000.0
2,2, 1, 2, 0, 5,10.00,20.00,Monday
7,-11.621269865603859
9,1800000.0
2,2, 1, 2, 0, 5,20.00,30.00,Monday
7,-11.78481716378781
9,1800000.0
2,2, 1, 2, 0, 5,30.00,40.00,Monday
7,-11.948382797439824
9,1800000.0
2,2, 1, 2, 0, 5,40.00,50.00,Monday
7,-12.111967861592495
9,1800000.0
2,2, 1, 2, 0, 5,50.00,60.00,Monday
7,-12.275575675229974
9,1800000.0
2,2, 1, 2, 0, 6, 0.00,10.00,Monday
7,-12.806049464785094
9,1800000.0
2,2, 1, 2, 0, 6,10.00,20.00,Monday
7,-13.334065603244266
9,1800000.0
2,2, 1, 2, 0, 6,20.00,30.00,Monday
7,-13.859706674464631
9,1800000.0
2,2, 1, 2, 0, 6,30.00,40.00,Monday
7,-14.383055397571829
9,1800000.0
2,2, 1, 2, 0, 6,40.00,50.00,Monday
7,-14.904196322157155
9,1800000.0
2,2, 1, 2, 0, 6,50.00,60.00,Monday
7,-15.42320969029731
9,1800000.0
2,2, 1, 2, 0, 7, 0.00,10.00,Monday
7,-15.261633844838688
9,1800000.0
2,2, 1, 2, 0, 7,10.00,20.00,Monday
7,-15.100102465757335
9,1800000.0
2,2, 1, 2, 0, 7,20.00,30.00,Monday
7,-14.938613393440872
9,1800000.0
2,2, 1, 2, 0, 7,30.00,40.00,Monday
7,-14.777159027852396
9,1800000.0
2,2, 1, 2, 0, 7,40.00,50.00,Monday
7,-14.615751257397582
9,1800000.0
2,2, 1, 2, 0, 7,50.00,60.00,Monday
7,-14.454384450810013
9,1800000.0
2,2, 1, 2, 0, 8, 0.00,10.00,Monday
7,-14.2931227765408
9,1800000.0
2,2, 1, 2, 0, 8,10.00,20.00,Monday
7,-14.131909420046313
9,1800000.0
2,2, 1, 2, 0, 8,20.00,30.00,Monday
7,-13.970739389874228
9,0.0
2,2, 1, 2, 0, 8,30.00,40.00,Monday
7,-13.809604048411723
9,0.0
2,2, 1, 2, 0, 8,40.00,50.00,Monday
7,-13.648515727539888
9,0.0
2,2, 1, 2, 0, 8,50.00,60.00,Monday
7,-13.487469650551598
9,0.0
2,2, 1, 2, 0, 9, 0.00,10.00,Monday
7,-13.160426539981714
9,0.0
2,2, 1, 2, 0, 9,10.00,20.00,Monday
7,-12.833317335862166
9,0.0
2,2, 1, 2, 0, 9,20.00,30.00,Monday
7,-12.506140696728501
9,0.0
2,2, 1, 2, 0, 9,30.00,40.00,Monday
7,-12.17888275024052
9,0.0
2,2, 1, 2, 0, 9,40.00,50.00,Monday
7,-11.85154192953075
9,0.0
2,2, 1, 2, 0, 9,50.00,60.00,Monday
7,-11.524115334542737
9,0.0
2,2, 1, 2, 0,10, 0.00,10.00,Monday
7,-10.995566298658396
9,0.0
2,2, 1, 2, 0,10,10.00,20.00,Monday
7,-10.478083688386674
9,0.0
2,2, 1, 2, 0,10,20.00,30.00,Monday
7,-9.972165591315959
9,0.0
2,2, 1, 2, 0,10,30.00,40.00,Monday
7,-9.47833090506782
9,0.0
2,2, 1, 2, 0,10,40.00,50.00,Monday
7,-8.997123513412526
9,0.0
2,2, 1, 2, 0,10,50.00,60.00,Monday
7,-8.529094179719598
9,0.0
2,2, 1, 2, 0,11, 0.00,10.00,Monday
7,-8.414319060135897
9,0.0
2,2, 1, 2, 0,11,10.00,20.00,Monday
7,-8.300420502811955
9,0.0
2,2, 1, 2, 0,11,20.00,30.00,Monday
7,-8.187410122008112
9,0.0
2,2, 1, 2, 0,11,30.00,40.00,Monday
7,-8.075289495448513
9,0.0
2,2, 1, 2, 0,11,40.00,50.00,Monday
7,-7.964075809759834
9,0.0
2,2, 1, 2, 0,11,50.00,60.00,Monday
7,-7.853777018842321
9,0.0
2,2, 1, 2, 0,12, 0.00,10.00,Monday
7,-7.853531027084035
9,0.0
2,2, 1, 2, 0,12,10.00,20.00,Monday
7,-7.853280896273169
9,0.0
2,2, 1, 2, 0,12,20.00,30.00,Monday
7,-7.85303245325916
9,0.0
2,2, 1, 2, 0,12,30.00,40.00,Monday
7,-7.852785919520978
9,0.0
2,2, 1, 2, 0,12,40.00,50.00,Monday
7,-7.852536559158459
9,0.0
2,2, 1, 2, 0,12,50.00,60.00,Monday
7,-7.8522875769791329
9,0.0
2,2, 1, 2, 0,13, 0.00,10.00,Monday
7,-7.742869214071646
9,0.0
2,2, 1, 2, 0,13,10.00,20.00,Monday
7,-7.634384055048671
9,0.0
2,2, 1, 2, 0,13,20.00,30.00,Monday
7,-7.526845232376794
9,0.0
2,2, 1, 2, 0,13,30.00,40.00,Monday
7,-7.420257194837645
9,0.0
2,2, 1, 2, 0,13,40.00,50.00,Monday
7,-7.314634384185844
9,0.0
2,2, 1, 2, 0,13,50.00,60.00,Monday
7,-7.20998961673012
9,0.0
2,2, 1, 2, 0,14, 0.00,10.00,Monday
7,-7.20998961673012
9,0.0
2,2, 1, 2, 0,14,10.00,20.00,Monday
7,-7.20998961673012
9,0.0
2,2, 1, 2, 0,14,20.00,30.00,Monday
7,-7.20998961673012
9,0.0
2,2, 1, 2, 0,14,30.00,40.00,Monday
7,-7.20998961673012
9,0.0
2,2, 1, 2, 0,14,40.00,50.00,Monday
7,-7.20998961673012
9,0.0
2,2, 1, 2, 0,14,50.00,60.00,Monday
7,-7.20998961673012
9,0.0
2,2, 1, 2, 0,15, 0.00,10.00,Monday
7,-7.167592846309591
9,0.0
2,2, 1, 2, 0,15,10.00,20.00,Monday
7,-7.13007900814864
9,0.0
2,2, 1, 2, 0,15,20.00,30.00,Monday
7,-7.097329793409603
9,0.0
2,2, 1, 2, 0,15,30.00,40.00,Monday
7,-7.069235493634938
9,0.0
2,2, 1, 2, 0,15,40.00,50.00,Monday
7,-7.045691689183275
9,0.0
2,2, 1, 2, 0,15,50.00,60.00,Monday
7,-7.026593488020064
9,0.0
2,2, 1, 2, 0,16, 0.00,10.00,Monday
7,-7.07143028785601
9,0.0
2,2, 1, 2, 0,16,10.00,20.00,Monday
7,-7.118870119182797
9,0.0
2,2, 1, 2, 0,16,20.00,30.00,Monday
7,-7.168868603093983
9,0.0
2,2, 1, 2, 0,16,30.00,40.00,Monday
7,-7.221378751417393
9,0.0
2,2, 1, 2, 0,16,40.00,50.00,Monday
7,-7.276360966377853
9,0.0
2,2, 1, 2, 0,16,50.00,60.00,Monday
7,-7.333771714482397
9,0.0
2,2, 1, 2, 0,17, 0.00,10.00,Monday
7,-7.497199320462519
9,0.0
2,2, 1, 2, 0,17,10.00,20.00,Monday
7,-7.660644787650167
9,0.0
2,2, 1, 2, 0,17,20.00,30.00,Monday
7,-7.82410583233406
9,0.0
2,2, 1, 2, 0,17,30.00,40.00,Monday
7,-7.987580553588723
9,0.0
2,2, 1, 2, 0,17,40.00,50.00,Monday
7,-8.15107149164089
9,1800000.0
2,2, 1, 2, 0,17,50.00,60.00,Monday
7,-8.314579788593754
9,1800000.0
2,2, 1, 2, 0,18, 0.00,10.00,Monday
7,-8.314538504866265
9,1800000.0
2,2, 1, 2, 0,18,10.00,20.00,Monday
7,-8.314494495842169
9,1800000.0
2,2, 1, 2, 0,18,20.00,30.00,Monday
7,-8.314450886784338
9,1800000.0
2,2, 1, 2, 0,18,30.00,40.00,Monday
7,-8.314410374419106
9,1800000.0
2,2, 1, 2, 0,18,40.00,50.00,Monday
7,-8.31436745931308
9,1800000.0
2,2, 1, 2, 0,18,50.00,60.00,Monday
7,-8.314324624870736
9,1800000.0
2,2, 1, 2, 0,19, 0.00,10.00,Monday
7,-8.530023325446326
9,1800000.0
2,2, 1, 2, 0,19,10.00,20.00,Monday
7,-8.74476645998477
9,1800000.0
2,2, 1, 2, 0,19,20.00,30.00,Monday
7,-8.958564335437627
9,1800000.0
2,2, 1, 2, 0,19,30.00,40.00,Monday
7,-9.171410356565099
9,1800000.0
2,2, 1, 2, 0,19,40.00,50.00,Monday
7,-9.383311748042973
9,1800000.0
2,2, 1, 2, 0,19,50.00,60.00,Monday
7,-9.594275448800016
9,1800000.0
2,2, 1, 2, 0,20, 0.00,10.00,Monday
7,-9.91532275908346
9,1800000.0
2,2, 1, 2, 0,20,10.00,20.00,Monday
7,-10.236516970787694
9,1800000.0
2,2, 1, 2, 0,20,20.00,30.00,Monday
7,-10.557853547731846
9,1800000.0
2,2, 1, 2, 0,20,30.00,40.00,Monday
7,-10.879328731528739
9,1800000.0
2,2, 1, 2, 0,20,40.00,50.00,Monday
7,-11.200956411595153
9,1800000.0
2,2, 1, 2, 0,20,50.00,60.00,Monday
7,-11.522731974497108
9,1800000.0
2,2, 1, 2, 0,21, 0.00,10.00,Monday
7,-11.484389083448452
9,1800000.0
2,2, 1, 2, 0,21,10.00,20.00,Monday
7,-11.446081195558105
9,1800000.0
2,2, 1, 2, 0,21,20.00,30.00,Monday
7,-11.407810059046872
9,1800000.0
2,2, 1, 2, 0,21,30.00,40.00,Monday
7,-11.369573718212643
9,1800000.0
2,2, 1, 2, 0,21,40.00,50.00,Monday
7,-11.331374145002139
9,1800000.0
2,2, 1, 2, 0,21,50.00,60.00,Monday
7,-11.293209616492307
9,1800000.0
2,2, 1, 2, 0,22, 0.00,10.00,Monday
7,-11.293253185745244
9,1800000.0
2,2, 1, 2, 0,22,10.00,20.00,Monday
7,-11.29329697632384
9,1800000.0
2,2, 1, 2, 0,22,20.00,30.00,Monday
7,-11.293338629686743
9,1800000.0
2,2, 1, 2, 0,22,30.00,40.00,Monday
7,-11.293382956555704
9,1800000.0
2,2, 1, 2, 0,22,40.00,50.00,Monday
7,-11.293425736335072
9,1800000.0
2,2, 1, 2, 0,22,50.00,60.00,Monday
7,-11.293466511050138
9,1800000.0
2,2, 1, 2, 0,23, 0.00,10.00,Monday
7,-11.50011247615344
9,1800000.0
2,2, 1, 2, 0,23,10.00,20.00,Monday
7,-11.705871872710219
9,1800000.0
2,2, 1, 2, 0,23,20.00,30.00,Monday
7,-11.91075365087249
9,1800000.0
2,2, 1, 2, 0,23,30.00,40.00,Monday
7,-12.114756295481165
9,1800000.0
2,2, 1, 2, 0,23,40.00,50.00,Monday
7,-12.31788835368246
9,1800000.0
2,2, 1, 2, 0,23,50.00,60.00,Monday
7,-12.520164809694699
9,1800000.0
2,2, 1, 2, 0,24, 0.00,10.00,Monday
7,-12.520164809694699
9,1800000.0
2,2, 1, 2, 0,24,10.00,20.00,Monday
7,-12.520164809694699
9,1800000.0
2,2, 1, 2, 0,24,20.00,30.00,Monday
7,-12.520164809694699
9,1800000.0
2,2, 1, 2, 0,24,30.00,40.00,Monday
7,-12.520164809694699
9,1800000.0
2,2, 1, 2, 0,24,40.00,50.00,Monday
7,-12.520164809694699
9,1800000.0
2,2, 1, 2, 0,24,50.00,60.00,Monday
7,-12.520164809694699
9,1800000.0
2,3, 1, 3, 0, 1, 0.00,10.00,Tuesday
7,-12.680978608010314
9,1800000.0
2,3, 1, 3, 0, 1,10.00,20.00,Tuesday
7,-12.841834980935154
9,1800000.0
2,3, 1, 3, 0, 1,20.00,30.00,Tuesday
7,-13.002736651028667
9,1800000.0
2,3, 1, 3, 0, 1,30.00,40.00,Tuesday
7,-13.163674723876172
9,1800000.0
2,3, 1, 3, 0, 1,40.00,50.00,Tuesday
7,-13.324651993426253
9,1800000.0
2,3, 1, 3, 0, 1,50.00,60.00,Tuesday
7,-13.485678357893761
9,1800000.0
2,3, 1, 3, 0, 2, 0.00,10.00,Tuesday
7,-13.536995781166
9,1800000.0
2,3, 1, 3, 0, 2,10.00,20.00,Tuesday
7,-13.588234271132974
9,1800000.0
2,3, 1, 3, 0, 2,20.00,30.00,Tuesday
7,-13.639393280479802
9,1800000.0
2,3, 1, 3, 0, 2,30.00,40.00,Tuesday
7,-13.69047234438717
9,1800000.0
2,3, 1, 3, 0, 2,40.00,50.00,Tuesday
7,-13.7414726611581
9,1800000.0
2,3, 1, 3, 0, 2,50.00,60.00,Tuesday
7,-13.792393864976717
9,1800000.0
2,3, 1, 3, 0, 3, 0.00,10.00,Tuesday
7,-13.865814502130178
9,1800000.0
2,3, 1, 3, 0, 3,10.00,20.00,Tuesday
7,-13.939158381735805
9,1800000.0
2,3, 1, 3, 0, 3,20.00,30.00,Tuesday
7,-14.012424060205579
9,1800000.0
2,3, 1, 3, 0, 3,30.00,40.00,Tuesday
7,-14.085616826648831
9,1800000.0
2,3, 1, 3, 0, 3,40.00,50.00,Tuesday
7,-14.158739264736616
9,1800000.0
2,3, 1, 3, 0, 3,50.00,60.00,Tuesday
7,-14.231780703093165
9,1800000.0
2,3, 1, 3, 0, 4, 0.00,10.00,Tuesday
7,-14.300058839161496
9,1800000.0
2,3, 1, 3, 0, 4,10.00,20.00,Tuesday
7,-14.368305294972112
9,1800000.0
2,3, 1, 3, 0, 4,20.00,30.00,Tuesday
7,-14.436515690685436
9,1800000.0
2,3, 1, 3, 0, 4,30.00,40.00,Tuesday
7,-14.504693128378662
9,1800000.0
2,3, 1, 3, 0, 4,40.00,50.00,Tuesday
7,-14.57283688213203
9,1800000.0
2,3, 1, 3, 0, 4,50.00,60.00,Tuesday
7,-14.640954036696297
9,1800000.0
2,3, 1, 3, 0, 5, 0.00,10.00,Tuesday
7,-14.640954036696297
9,1800000.0
2,3, 1, 3, 0, 5,10.00,20.00,Tuesday
7,-14.640954036696297
9,1800000.0
2,3, 1, 3, 0, 5,20.00,30.00,Tuesday
7,-14.640954036696297
9,1800000.0
2,3, 1, 3, 0, 5,30.00,40.00,Tuesday
7,-14.640954036696297
9,1800000.0
2,3, 1, 3, 0, 5,40.00,50.00,Tuesday
7,-14.640954036696297
9,1800000.0
2,3, 1, 3, 0, 5,50.00,60.00,Tuesday
7,-14.640954036696297
9,1800000.0
2,3, 1, 3, 0, 6, 0.00,10.00,Tuesday
7,-14.640954036696297
9,1800000.0
2,3, 1, 3, 0, 6,10.00,20.00,Tuesday
7,-14.640954036696297
9,1800000.0
2,3, 1, 3, 0, 6,20.00,30.00,Tuesday
7,-14.640954036696297
9,1800000.0
2,3, 1, 3, 0, 6,30.00,40.00,Tuesday
7,-14.640954036696297
9,1800000.0
2,3, 1, 3, 0, 6,40.00,50.00,Tuesday
7,-14.640954036696297
9,1800000.0
2,3, 1, 3, 0, 6,50.00,60.00,Tuesday
7,-14.640954036696297
9,1800000.0
2,3, 1, 3, 0, 7, 0.00,10.00,Tuesday
7,-14.640954036696297
9,1800000.0
2,3, 1, 3, 0, 7,10.00,20.00,Tuesday
7,-14.640954036696297
9,1800000.0
2,3, 1, 3, 0, 7,20.00,30.00,Tuesday
7,-14.640954036696297
9,1800000.0
2,3, 1, 3, 0, 7,30.00,40.00,Tuesday
7,-14.640954036696297
9,1800000.0
2,3, 1, 3, 0, 7,40.00,50.00,Tuesday
7,-14.640954036696297
9,1800000.0
2,3, 1, 3, 0, 7,50.00,60.00,Tuesday
7,-14.640954036696297
9,1800000.0
2,3, 1, 3, 0, 8, 0.00,10.00,Tuesday
7,-15.088177618960826
9,1800000.0
2,3, 1, 3, 0, 8,10.00,20.00,Tuesday
7,-15.538130442075472
9,1800000.0
2,3, 1, 3, 0, 8,20.00,30.00,Tuesday
7,-15.990718244633675
9,0.0
2,3, 1, 3, 0, 8,30.00,40.00,Tuesday
7,-16.445862462119817
9,0.0
2,3, 1, 3, 0, 8,40.00,50.00,Tuesday
7,-16.90347276024211
9,0.0
2,3, 1, 3, 0, 8,50.00,60.00,Tuesday
7,-17.36346437817773
9,0.0
2,3, 1, 3, 0, 9, 0.00,10.00,Tuesday
7,-16.76818031131164
9,0.0
2,3, 1, 3, 0, 9,10.00,20.00,Tuesday
7,-16.179004948394114
9,0.0
2,3, 1, 3, 0, 9,20.00,30.00,Tuesday
7,-15.596239865670612
9,0.0
2,3, 1, 3, 0, 9,30.00,40.00,Tuesday
7,-15.020200795378753
9,0.0
2,3, 1, 3, 0, 9,40.00,50.00,Tuesday
7,-14.451218723129485
9,0.0
2,3, 1, 3, 0, 9,50.00,60.00,Tuesday
7,-13.889616124571937
9,0.0
2,3, 1, 3, 0,10, 0.00,10.00,Tuesday
7,-13.572114970091646
9,0.0
2,3, 1, 3, 0,10,10.00,20.00,Tuesday
7,-13.254689391292807
9,0.0
2,3, 1, 3, 0,10,20.00,30.00,Tuesday
7,-12.937339216608722
9,0.0
2,3, 1, 3, 0,10,30.00,40.00,Tuesday
7,-12.62005046501974
9,0.0
2,3, 1, 3, 0,10,40.00,50.00,Tuesday
7,-12.302817148613214
9,0.0
2,3, 1, 3, 0,10,50.00,60.00,Tuesday
7,-11.985637575528616
9,0.0
2,3, 1, 3, 0,11, 0.00,10.00,Tuesday
7,-11.770615436869973
9,0.0
2,3, 1, 3, 0,11,10.00,20.00,Tuesday
7,-11.560457678085605
9,0.0
2,3, 1, 3, 0,11,20.00,30.00,Tuesday
7,-11.355305508849947
9,0.0
2,3, 1, 3, 0,11,30.00,40.00,Tuesday
7,-11.155286004704092
9,0.0
2,3, 1, 3, 0,11,40.00,50.00,Tuesday
7,-10.960546242545889
9,0.0
2,3, 1, 3, 0,11,50.00,60.00,Tuesday
7,-10.771236823547982
9,0.0
2,3, 1, 3, 0,12, 0.00,10.00,Tuesday
7,-10.649518847315227
9,0.0
2,3, 1, 3, 0,12,10.00,20.00,Tuesday
7,-10.528520095171024
9,0.0
2,3, 1, 3, 0,12,20.00,30.00,Tuesday
7,-10.40824183836201
9,0.0
2,3, 1, 3, 0,12,30.00,40.00,Tuesday
7,-10.288683614506514
9,0.0
2,3, 1, 3, 0,12,40.00,50.00,Tuesday
7,-10.169867748903754
9,0.0
2,3, 1, 3, 0,12,50.00,60.00,Tuesday
7,-10.051794857965592
9,0.0
2,3, 1, 3, 0,13, 0.00,10.00,Tuesday
7,-9.962072398369584
9,0.0
2,3, 1, 3, 0,13,10.00,20.00,Tuesday
7,-9.873756094978717
9,0.0
2,3, 1, 3, 0,13,20.00,30.00,Tuesday
7,-9.786871173331232
9,0.0
2,3, 1, 3, 0,13,30.00,40.00,Tuesday
7,-9.70143491680527
9,0.0
2,3, 1, 3, 0,13,40.00,50.00,Tuesday
7,-9.617462553896758
9,0.0
2,3, 1, 3, 0,13,50.00,60.00,Tuesday
7,-9.5349808255317
9,0.0
2,3, 1, 3, 0,14, 0.00,10.00,Tuesday
7,-9.534591885626295
9,0.0
2,3, 1, 3, 0,14,10.00,20.00,Tuesday
7,-9.534235751070567
9,0.0
2,3, 1, 3, 0,14,20.00,30.00,Tuesday
7,-9.533911436617363
9,0.0
2,3, 1, 3, 0,14,30.00,40.00,Tuesday
7,-9.53362606597966
9,0.0
2,3, 1, 3, 0,14,40.00,50.00,Tuesday
7,-9.53337334331807
9,0.0
2,3, 1, 3, 0,14,50.00,60.00,Tuesday
7,-9.53315417191775
9,0.0
2,3, 1, 3, 0,15, 0.00,10.00,Tuesday
7,-9.595914742831763
9,0.0
2,3, 1, 3, 0,15,10.00,20.00,Tuesday
7,-9.65933692896126
9,0.0
2,3, 1, 3, 0,15,20.00,30.00,Tuesday
7,-9.723409928294908
9,0.0
2,3, 1, 3, 0,15,30.00,40.00,Tuesday
7,-9.788130258557832
9,0.0
2,3, 1, 3, 0,15,40.00,50.00,Tuesday
7,-9.853487253219456
9,0.0
2,3, 1, 3, 0,15,50.00,60.00,Tuesday
7,-9.919482234188785
9,0.0
2,3, 1, 3, 0,16, 0.00,10.00,Tuesday
7,-10.024234218919063
9,0.0
2,3, 1, 3, 0,16,10.00,20.00,Tuesday
7,-10.131089050449328
9,0.0
2,3, 1, 3, 0,16,20.00,30.00,Tuesday
7,-10.240016123518809
9,0.0
2,3, 1, 3, 0,16,30.00,40.00,Tuesday
7,-10.350985358322675
9,0.0
2,3, 1, 3, 0,16,40.00,50.00,Tuesday
7,-10.463954117652147
9,0.0
2,3, 1, 3, 0,16,50.00,60.00,Tuesday
7,-10.578900724795054
9,0.0
2,3, 1, 3, 0,17, 0.00,10.00,Tuesday
7,-10.578900724795054
9,0.0
2,3, 1, 3, 0,17,10.00,20.00,Tuesday
7,-10.578900724795054
9,0.0
2,3, 1, 3, 0,17,20.00,30.00,Tuesday
7,-10.578900724795054
9,0.0
2,3, 1, 3, 0,17,30.00,40.00,Tuesday
7,-10.578900724795054
9,0.0
2,3, 1, 3, 0,17,40.00,50.00,Tuesday
7,-10.578900724795054
9,1800000.0
2,3, 1, 3, 0,17,50.00,60.00,Tuesday
7,-10.578900724795054
9,1800000.0
2,3, 1, 3, 0,18, 0.00,10.00,Tuesday
7,-10.578900724795054
9,1800000.0
2,3, 1, 3, 0,18,10.00,20.00,Tuesday
7,-10.578900724795054
9,1800000.0
2,3, 1, 3, 0,18,20.00,30.00,Tuesday
7,-10.578900724795054
9,1800000.0
2,3, 1, 3, 0,18,30.00,40.00,Tuesday
7,-10.578900724795054
9,1800000.0
2,3, 1, 3, 0,18,40.00,50.00,Tuesday
7,-10.578900724795054
9,1800000.0
2,3, 1, 3, 0,18,50.00,60.00,Tuesday
7,-10.578900724795054
9,1800000.0
2,3, 1, 3, 0,19, 0.00,10.00,Tuesday
7,-10.578900724795054
9,1800000.0
2,3, 1, 3, 0,19,10.00,20.00,Tuesday
7,-10.578900724795054
9,1800000.0
2,3, 1, 3, 0,19,20.00,30.00,Tuesday
7,-10.578900724795054
9,1800000.0
2,3, 1, 3, 0,19,30.00,40.00,Tuesday
7,-10.578900724795054
9,1800000.0
2,3, 1, 3, 0,19,40.00,50.00,Tuesday
7,-10.578900724795054
9,1800000.0
2,3, 1, 3, 0,19,50.00,60.00,Tuesday
7,-10.578900724795054
9,1800000.0
2,3, 1, 3, 0,20, 0.00,10.00,Tuesday
7,-10.610891800495156
9,1800000.0
2,3, 1, 3, 0,20,10.00,20.00,Tuesday
7,-10.642909169040897
9,1800000.0
2,3, 1, 3, 0,20,20.00,30.00,Tuesday
7,-10.67495107440678
9,1800000.0
2,3, 1, 3, 0,20,30.00,40.00,Tuesday
7,-10.707020704783539
9,1800000.0
2,3, 1, 3, 0,20,40.00,50.00,Tuesday
7,-10.739114780415332
9,1800000.0
2,3, 1, 3, 0,20,50.00,60.00,Tuesday
7,-10.771236823547982
9,1800000.0
2,3, 1, 3, 0,21, 0.00,10.00,Tuesday
7,-10.5910402059402
9,1800000.0
2,3, 1, 3, 0,21,10.00,20.00,Tuesday
7,-10.41027780014193
9,1800000.0
2,3, 1, 3, 0,21,20.00,30.00,Tuesday
7,-10.228938339471691
9,1800000.0
2,3, 1, 3, 0,21,30.00,40.00,Tuesday
7,-10.047009438695639
9,1800000.0
2,3, 1, 3, 0,21,40.00,50.00,Tuesday
7,-9.864498195463327
9,1800000.0
2,3, 1, 3, 0,21,50.00,60.00,Tuesday
7,-9.681391828665135
9,1800000.0
2,3, 1, 3, 0,22, 0.00,10.00,Tuesday
7,-9.749766880305624
9,1800000.0
2,3, 1, 3, 0,22,10.00,20.00,Tuesday
7,-9.820146600840907
9,1800000.0
2,3, 1, 3, 0,22,20.00,30.00,Tuesday
7,-9.892505161027712
9,1800000.0
2,3, 1, 3, 0,22,30.00,40.00,Tuesday
7,-9.966800801734179
9,1800000.0
2,3, 1, 3, 0,22,40.00,50.00,Tuesday
7,-10.043007711086073
9,1800000.0
2,3, 1, 3, 0,22,50.00,60.00,Tuesday
7,-10.121101590834709
9,1800000.0
2,3, 1, 3, 0,23, 0.00,10.00,Tuesday
7,-10.121101590834709
9,1800000.0
2,3, 1, 3, 0,23,10.00,20.00,Tuesday
7,-10.121101590834709
9,1800000.0
2,3, 1, 3, 0,23,20.00,30.00,Tuesday
7,-10.121101590834709
9,1800000.0
2,3, 1, 3, 0,23,30.00,40.00,Tuesday
7,-10.121101590834709
9,1800000.0
2,3, 1, 3, 0,23,40.00,50.00,Tuesday
7,-10.121101590834709
9,1800000.0
2,3, 1, 3, 0,23,50.00,60.00,Tuesday
7,-10.121101590834709
9,1800000.0
2,3, 1, 3, 0,24, 0.00,10.00,Tuesday
7,-10.121101590834709
9,1800000.0
2,3, 1, 3, 0,24,10.00,20.00,Tuesday
7,-10.121101590834709
9,1800000.0
2,3, 1, 3, 0,24,20.00,30.00,Tuesday
7,-10.121101590834709
9,1800000.0
2,3, 1, 3, 0,24,30.00,40.00,Tuesday
7,-10.121101590834709
9,1800000.0
2,3, 1, 3, 0,24,40.00,50.00,Tuesday
7,-10.121101590834709
9,1800000.0
2,3, 1, 3, 0,24,50.00,60.00,Tuesday
7,-10.121101590834709
9,1800000.0
2,4, 1, 4, 0, 1, 0.00,10.00,Wednesday
7,-10.004612838901823
9,1800000.0
2,4, 1, 4, 0, 1,10.00,20.00,Wednesday
7,-9.88906500283921
9,1800000.0
2,4, 1, 4, 0, 1,20.00,30.00,Wednesday
7,-9.774465161877611
9,1800000.0
2,4, 1, 4, 0, 1,30.00,40.00,Wednesday
7,-9.660815770684917
9,1800000.0
2,4, 1, 4, 0, 1,40.00,50.00,Wednesday
7,-9.548142609091716
9,1800000.0
2,4, 1, 4, 0, 1,50.00,60.00,Wednesday
7,-9.43645054683489
9,1800000.0