Program Version,EnergyPlus, Version 8.9.0-497bb3e71c, YMD=2018.06.14 14:54
1,5,Environment Title[],Latitude[deg],Longitude[deg],Time Zone[],Elevation[m]
2,8,Day of Simulation[],Month[],Day of Month[],DST Indicator[1=yes 0=no],Hour[],StartMinute[],EndMinute[],DayType
3,5,Cumulative Day of Simulation[],Month[],Day of Month[],DST Indicator[1=yes 0=no],DayType  ! When Daily Report Variables Requested
4,2,Cumulative Days of Simulation[],Month[]  ! When Monthly Report Variables Requested
5,1,Cumulative Days of Simulation[] ! When Run Period Report Variables Requested
6,1,Calendar Year of Simulation[] ! When Annual Report Variables Requested
7,9,Environment,Site Outdoor Air Drybulb Temperature [C] !Monthly [Value,Min,Day,Hour,Minute,Max,Day,Hour,Minute]
8,1,Environment,Site Outdoor Air Wetbulb Temperature [C] !TimeStep
243,1,SP-ATTIC SYS-0 FLR-2 SCH-- UNDEFINED - HPLCMT-CORE ZN,Zone Air Temperature [C] !Hourly
244,7,SP-ATTIC SYS-0 FLR-2 SCH-- UNDEFINED - HPLCMT-CORE ZN,Zone Air Relative Humidity [%] !Daily [Value,Min,Hour,Minute,Max,Hour,Minute]
283,1,SP-DINING SYS-3 FLR-1 SCH-B HPLCMT-SOUTH ZN,Zone Air Temperature [C] !Hourly
284,7,SP-DINING SYS-3 FLR-1 SCH-B HPLCMT-SOUTH ZN,Zone Air Relative Humidity [%] !Daily [Value,Min,Hour,Minute,Max,Hour,Minute]
323,1,SP-KITCHEN SYS-3 FLR-1 SCH-B HPLCMT-NORTH ZN,Zone Air Temperature [C] !Hourly
324,7,SP-KITCHEN SYS-3 FLR-1 SCH-B HPLCMT-NORTH ZN,Zone Air Relative Humidity [%] !Daily [Value,Min,Hour,Minute,Max,Hour,Minute]
10,1,Electricity:Facility [J] !TimeStep
580,1,Gas:Facility [J] !TimeStep
End of Data Dictionary
1,BANFF CS ANN CLG .4% CONDNS DB=>MWB,  51.19,-115.55,  -7.00,1396.90
2,1, 7,21, 0, 1, 0.00,10.00,SummerDesignDay
8,9.168072468920075
10,4165797.837335513
580,1384801.9924914994
2,1, 7,21, 0, 1,10.00,20.00,SummerDesignDay
8,9.108695941932968
10,4158527.2529478978
580,1587932.414646306
2,1, 7,21, 0, 1,20.00,30.00,SummerDesignDay
8,9.049198797046217
10,4151423.3477567576
580,1785504.9692050063
2,1, 7,21, 0, 1,30.00,40.00,SummerDesignDay
8,8.98957742410667
10,4144375.0179739219
580,1981153.9523175855
2,1, 7,21, 0, 1,40.00,50.00,SummerDesignDay
8,8.929828419558682
10,4137370.979560272
580,2175196.602402128
2,1, 7,21, 0, 1,50.00,60.00,SummerDesignDay
8,8.86995759746822
10,4130383.153765497
580,2368103.3722199664
2,1, 7,21, 0, 1, 0.00,60.00,SummerDesignDay
243,24.64941855003568
283,21.999999810952337
323,23.999622821628809
2,1, 7,21, 0, 2, 0.00,10.00,SummerDesignDay
8,8.829972937101186
10,2397888.7638252738
580,3346920.6125924366
2,1, 7,21, 0, 2,10.00,20.00,SummerDesignDay
8,8.789932657654998
10,2397888.414352293
580,3552142.0710494916
2,1, 7,21, 0, 2,20.00,30.00,SummerDesignDay
8,8.749836303015366
10,2397887.2494743976
580,3716032.8485131089
2,1, 7,21, 0, 2,30.00,40.00,SummerDesignDay
8,8.709684236896468
10,2397887.2494743976
580,3875863.52643499
2,1, 7,21, 0, 2,40.00,50.00,SummerDesignDay
8,8.669475663037103
10,2397887.2494743976
580,4030401.572029059
2,1, 7,21, 0, 2,50.00,60.00,SummerDesignDay
8,8.629210899646538
10,2397887.2494743976
580,4182043.6712177756
2,1, 7,21, 0, 2, 0.00,60.00,SummerDesignDay
243,24.404937032482385
283,21.999922008739078
323,23.69557810353219
2,1, 7,21, 0, 3, 0.00,10.00,SummerDesignDay
8,8.598976385016892
10,759608.5373515032
580,0.0
2,1, 7,21, 0, 3,10.00,20.00,SummerDesignDay
8,8.568710010728186
10,759608.5373515032
580,0.0
2,1, 7,21, 0, 3,20.00,30.00,SummerDesignDay
8,8.538411680999824
10,759608.5373515032
580,0.0
2,1, 7,21, 0, 3,30.00,40.00,SummerDesignDay
8,8.508081531011659
10,759608.5373515032
580,0.0
2,1, 7,21, 0, 3,40.00,50.00,SummerDesignDay
8,8.477719486378878
10,759608.5373515032
580,0.0
2,1, 7,21, 0, 3,50.00,60.00,SummerDesignDay
8,8.44732213231329
10,759608.5373515032
580,0.0
2,1, 7,21, 0, 3, 0.00,60.00,SummerDesignDay
243,24.171626576527684
283,20.032758089162035
323,22.77126960439378
2,1, 7,21, 0, 4, 0.00,10.00,SummerDesignDay
8,8.416896179962679
10,759608.5373515032
580,0.0
2,1, 7,21, 0, 4,10.00,20.00,SummerDesignDay
8,8.386438236498608
10,759608.5373515032
580,0.0
2,1, 7,21, 0, 4,20.00,30.00,SummerDesignDay
8,8.355948044284068
10,759608.5373515032
580,0.0
2,1, 7,21, 0, 4,30.00,40.00,SummerDesignDay
8,8.325425972513595
10,759608.5373515032
580,0.0
2,1, 7,21, 0, 4,40.00,50.00,SummerDesignDay
8,8.294868186717855
10,759608.5373515032
580,0.0
2,1, 7,21, 0, 4,50.00,60.00,SummerDesignDay
8,8.264281455042731
10,759608.5373515032
580,0.0
2,1, 7,21, 0, 4, 0.00,60.00,SummerDesignDay
243,23.84309584199337
283,19.179674439364697
323,22.133852436007684
2,1, 7,21, 0, 5, 0.00,10.00,SummerDesignDay
8,8.243873510705246
10,759608.5373515032
580,0.0
2,1, 7,21, 0, 5,10.00,20.00,SummerDesignDay
8,8.223447913503242
10,759608.5373515032
580,0.0
2,1, 7,21, 0, 5,20.00,30.00,SummerDesignDay
8,8.203010922189153
10,759608.5373515032
580,0.0
2,1, 7,21, 0, 5,30.00,40.00,SummerDesignDay
8,8.182556651776391
10,759608.5373515032
580,0.0
2,1, 7,21, 0, 5,40.00,50.00,SummerDesignDay
8,8.162091031899337
10,759608.5373515032
580,0.0
2,1, 7,21, 0, 5,50.00,60.00,SummerDesignDay
8,8.141607956176271
10,759608.5373515032
580,0.0
2,1, 7,21, 0, 5, 0.00,60.00,SummerDesignDay
243,23.482091040311514
283,18.780755073009077
323,21.772150387539005
2,1, 7,21, 0, 6, 0.00,10.00,SummerDesignDay
8,8.162091031899337
10,759608.5373515032
580,0.0
2,1, 7,21, 0, 6,10.00,20.00,SummerDesignDay
8,8.182556651776391
10,759608.5373515032
580,0.0
2,1, 7,21, 0, 6,20.00,30.00,SummerDesignDay
8,8.203010922189153
10,759608.5373515032
580,0.0
2,1, 7,21, 0, 6,30.00,40.00,SummerDesignDay
8,8.223447913503242
10,759608.5373515032
580,0.0
2,1, 7,21, 0, 6,40.00,50.00,SummerDesignDay
8,8.243873510705246
10,759608.5373515032
580,0.0
2,1, 7,21, 0, 6,50.00,60.00,SummerDesignDay
8,8.264281455042731
10,759608.5373515032
580,0.0
2,1, 7,21, 0, 6, 0.00,60.00,SummerDesignDay
243,23.332217746924358
283,18.789389418976439
323,21.541096825725785
2,1, 7,21, 0, 7, 0.00,10.00,SummerDesignDay
8,8.335601378958323
10,759608.5373515032
580,0.0
2,1, 7,21, 0, 7,10.00,20.00,SummerDesignDay
8,8.406746044412723
10,759608.5373515032
580,0.0
2,1, 7,21, 0, 7,20.00,30.00,SummerDesignDay
8,8.477719486378878
10,759608.5373515032
580,0.0
2,1, 7,21, 0, 7,30.00,40.00,SummerDesignDay
8,8.54851569096514
10,759608.5373515032
580,0.0
2,1, 7,21, 0, 7,40.00,50.00,SummerDesignDay
8,8.61913860111238
10,759608.5373515032
580,0.0
2,1, 7,21, 0, 7,50.00,60.00,SummerDesignDay
8,8.689588437854562
10,759608.5373515032
580,0.0
2,1, 7,21, 0, 7, 0.00,60.00,SummerDesignDay
243,23.492992842046268
283,19.37587855137542
323,21.525851453602788
2,1, 7,21, 0, 8, 0.00,10.00,SummerDesignDay
8,8.85996572767301
10,759608.5373515032
580,0.0
2,1, 7,21, 0, 8,10.00,20.00,SummerDesignDay
8,9.029339776292629
10,759608.5373515032
580,0.0
2,1, 7,21, 0, 8,20.00,30.00,SummerDesignDay
8,9.197713010531788
10,759608.5373515032
580,0.0
2,1, 7,21, 0, 8,30.00,40.00,SummerDesignDay
8,9.365096812375848
10,759608.5373515032
580,0.0
2,1, 7,21, 0, 8,40.00,50.00,SummerDesignDay
8,9.531503361841422
10,759608.5373515032
580,0.0
2,1, 7,21, 0, 8,50.00,60.00,SummerDesignDay
8,9.696928185032912
10,759608.5373515032
580,0.0
2,1, 7,21, 0, 8, 0.00,60.00,SummerDesignDay
243,23.810223376616308
283,20.360327069809768
323,21.822138487210315
2,1, 7,21, 0, 9, 0.00,10.00,SummerDesignDay
8,9.880690526256489
10,759608.5373515032
580,0.0
2,1, 7,21, 0, 9,10.00,20.00,SummerDesignDay
8,10.063247768633849
10,759608.5373515032
580,0.0
2,1, 7,21, 0, 9,20.00,30.00,SummerDesignDay
8,10.244637637530082
10,759608.5373515032
580,0.0
2,1, 7,21, 0, 9,30.00,40.00,SummerDesignDay
8,10.424848773563947
10,759608.5373515032
580,0.0
2,1, 7,21, 0, 9,40.00,50.00,SummerDesignDay
8,10.603898948792967
10,759608.5373515032
580,0.0
2,1, 7,21, 0, 9,50.00,60.00,SummerDesignDay
8,10.781815460410736
10,759608.5373515032
580,0.0
2,1, 7,21, 0, 9, 0.00,60.00,SummerDesignDay
243,24.41097312556845
283,21.72396783740687
323,22.436091420844894
2,1, 7,21, 0,10, 0.00,10.00,SummerDesignDay
8,10.940027839575924
10,2397887.2494743976
580,0.0
2,1, 7,21, 0,10,10.00,20.00,SummerDesignDay
8,11.097348520032867
10,2402425.953201715
580,0.0
2,1, 7,21, 0,10,20.00,30.00,SummerDesignDay
8,11.253779599231992
10,2397887.2494743976
580,0.0
2,1, 7,21, 0,10,30.00,40.00,SummerDesignDay
8,11.409321810927997
10,2439819.259749255
580,0.0
2,1, 7,21, 0,10,40.00,50.00,SummerDesignDay
8,11.563977235983597
10,2471266.9955146017
580,0.0
2,1, 7,21, 0,10,50.00,60.00,SummerDesignDay
8,11.717775704590944
10,2646176.54565792
580,0.0
2,1, 7,21, 0,10, 0.00,60.00,SummerDesignDay
243,25.109489395709223
283,23.40937219037019
323,23.753918393078519
2,1, 7,21, 0,11, 0.00,10.00,SummerDesignDay
8,11.852759001366481
10,3751418.1537303177
580,0.0
2,1, 7,21, 0,11,10.00,20.00,SummerDesignDay
8,11.987076432520589
10,3876519.1644626299
580,0.0
2,1, 7,21, 0,11,20.00,30.00,SummerDesignDay
8,12.120732532949499
10,4004392.2110782975
580,0.0
2,1, 7,21, 0,11,30.00,40.00,SummerDesignDay
8,12.253732751241758
10,4124051.861196025
580,0.0
2,1, 7,21, 0,11,40.00,50.00,SummerDesignDay
8,12.386082023068124
10,4245409.749665909
580,0.0
2,1, 7,21, 0,11,50.00,60.00,SummerDesignDay
8,12.51778518418237
10,4365447.741192754
580,0.0
2,1, 7,21, 0,11, 0.00,60.00,SummerDesignDay
243,25.908870223705948
283,23.998314663489326
323,23.999938733152378
2,1, 7,21, 0,12, 0.00,10.00,SummerDesignDay
8,12.605223732548529
10,5498221.459255165
580,0.0
2,1, 7,21, 0,12,10.00,20.00,SummerDesignDay
8,12.692391267573014
10,5594434.624643956
580,0.0
2,1, 7,21, 0,12,20.00,30.00,SummerDesignDay
8,12.779273250801264
10,5683595.011888748
580,0.0
2,1, 7,21, 0,12,30.00,40.00,SummerDesignDay
8,12.865866103603099
10,5773979.074048324
580,0.0
2,1, 7,21, 0,12,40.00,50.00,SummerDesignDay
8,12.95219170368721
10,5865767.910661236
580,0.0
2,1, 7,21, 0,12,50.00,60.00,SummerDesignDay
8,13.038236398727048
10,5958691.158458536
580,0.0
2,1, 7,21, 0,12, 0.00,60.00,SummerDesignDay
243,26.595973077450329
283,23.99954990015225
323,23.999727397824317
2,1, 7,21, 0,13, 0.00,10.00,SummerDesignDay
8,13.106863323671514
10,6199213.9059864389
580,0.0
2,1, 7,21, 0,13,10.00,20.00,SummerDesignDay
8,13.175322752935689
10,6282266.721999821
580,0.0
2,1, 7,21, 0,13,20.00,30.00,SummerDesignDay
8,13.243607077052833
10,6361772.000436585
580,0.0
2,1, 7,21, 0,13,30.00,40.00,SummerDesignDay
8,13.311716761967764
10,6439526.609052864
580,0.0
2,1, 7,21, 0,13,40.00,50.00,SummerDesignDay
8,13.379655600288534
10,6516285.216984728
580,0.0
2,1, 7,21, 0,13,50.00,60.00,SummerDesignDay
8,13.447417992098993
10,6593865.5245175729
580,0.0
2,1, 7,21, 0,13, 0.00,60.00,SummerDesignDay
243,27.13628489073517
283,23.998911523612958
323,23.99936165760315
2,1, 7,21, 0,14, 0.00,10.00,SummerDesignDay
8,13.48967636106858
10,6606917.159070431
580,0.0
2,1, 7,21, 0,14,10.00,20.00,SummerDesignDay
8,13.531879484215902
10,6657586.895301222
580,0.0
2,1, 7,21, 0,14,20.00,30.00,SummerDesignDay
8,13.574007141128604
10,6708408.939983557
580,0.0
2,1, 7,21, 0,14,30.00,40.00,SummerDesignDay
8,13.616064464404
10,6760062.426942632
580,0.0
2,1, 7,21, 0,14,40.00,50.00,SummerDesignDay
8,13.658067092741993
10,6813566.0727276359
580,0.0
2,1, 7,21, 0,14,50.00,60.00,SummerDesignDay
8,13.699994511440187
10,6868635.210535552
580,0.0
2,1, 7,21, 0,14, 0.00,60.00,SummerDesignDay
243,27.532377468132365
283,23.998702403227104
323,23.99915539759247
2,1, 7,21, 0,15, 0.00,10.00,SummerDesignDay
8,13.699994511440187
10,6766214.813642834
580,0.0
2,1, 7,21, 0,15,10.00,20.00,SummerDesignDay
8,13.699994511440187
10,6782612.81965138
580,0.0
2,1, 7,21, 0,15,20.00,30.00,SummerDesignDay
8,13.699994511440187
10,6803136.342171689
580,0.0
2,1, 7,21, 0,15,30.00,40.00,SummerDesignDay
8,13.699994511440187
10,6825904.605324542
580,0.0
2,1, 7,21, 0,15,40.00,50.00,SummerDesignDay
8,13.699994511440187
10,6849940.098769563
580,0.0
2,1, 7,21, 0,15,50.00,60.00,SummerDesignDay
8,13.699994511440187
10,6874264.8698883359
580,0.0
2,1, 7,21, 0,15, 0.00,60.00,SummerDesignDay
243,27.76336469452228
283,23.99904666358888
323,23.999289446191669
2,1, 7,21, 0,16, 0.00,10.00,SummerDesignDay
8,13.649672482665246
10,6730511.65699514
580,0.0
2,1, 7,21, 0,16,10.00,20.00,SummerDesignDay
8,13.599254618304699
10,6702625.208615183
580,0.0
2,1, 7,21, 0,16,20.00,30.00,SummerDesignDay
8,13.548732274837317
10,6674731.284164453
580,0.0
2,1, 7,21, 0,16,30.00,40.00,SummerDesignDay
8,13.498121848998244
10,6644863.14704412
580,0.0
2,1, 7,21, 0,16,40.00,50.00,SummerDesignDay
8,13.447417992098993
10,6615496.784639636
580,0.0
2,1, 7,21, 0,16,50.00,60.00,SummerDesignDay
8,13.396613561947288
10,6583238.012610802
580,0.0
2,1, 7,21, 0,16, 0.00,60.00,SummerDesignDay
243,27.808818809327364
283,23.999500041150556
323,23.999567263340397
2,1, 7,21, 0,17, 0.00,10.00,SummerDesignDay
8,13.328721556799375
10,6533782.956316688
580,0.0
2,1, 7,21, 0,17,10.00,20.00,SummerDesignDay
8,13.260655497638722
10,6483384.768826004
580,0.0
2,1, 7,21, 0,17,20.00,30.00,SummerDesignDay
8,13.192415093565853
10,6432888.310289288
580,0.0
2,1, 7,21, 0,17,30.00,40.00,SummerDesignDay
8,13.1239959996646
10,6382237.241491808
580,0.0
2,1, 7,21, 0,17,40.00,50.00,SummerDesignDay
8,13.055404330198125
10,6331288.051053674
580,0.0
2,1, 7,21, 0,17,50.00,60.00,SummerDesignDay
8,12.986636312061594
10,6279666.876599147
580,0.0
2,1, 7,21, 0,17, 0.00,60.00,SummerDesignDay
243,27.66854937029882
283,23.999680838165604
323,23.99973398663983
2,1, 7,21, 0,18, 0.00,10.00,SummerDesignDay
8,12.900433778114536
10,6251811.811937752
580,0.0
2,1, 7,21, 0,18,10.00,20.00,SummerDesignDay
8,12.813944208572046
10,6183613.312759947
580,0.0
2,1, 7,21, 0,18,20.00,30.00,SummerDesignDay
8,12.72717130942231
10,6113071.393419689
580,0.0
2,1, 7,21, 0,18,30.00,40.00,SummerDesignDay
8,12.640128941445754
10,6041485.0535607
580,0.0
2,1, 7,21, 0,18,40.00,50.00,SummerDesignDay
8,12.552794961087115
10,5967986.155183265
580,0.0
2,1, 7,21, 0,18,50.00,60.00,SummerDesignDay
8,12.465173246226799
10,5893540.267811059
580,0.0
2,1, 7,21, 0,18, 0.00,60.00,SummerDesignDay
243,27.364162037156576
283,23.999577871301644
323,23.999720728639038
2,1, 7,21, 0,19, 0.00,10.00,SummerDesignDay
8,12.333221291970667
10,5900537.013080299
580,0.0
2,1, 7,21, 0,19,10.00,20.00,SummerDesignDay
8,12.200612095313528
10,5792739.036370283
580,0.0
2,1, 7,21, 0,19,20.00,30.00,SummerDesignDay
8,12.067350167237623
10,5692628.65358846
580,0.0
2,1, 7,21, 0,19,30.00,40.00,SummerDesignDay
8,11.933430192371139
10,5587603.6064954339
580,0.0
2,1, 7,21, 0,19,40.00,50.00,SummerDesignDay
8,11.798846978333849
10,5477002.4047019309
580,0.0
2,1, 7,21, 0,19,50.00,60.00,SummerDesignDay
8,11.66359551943337
10,5361209.769409249
580,0.0
2,1, 7,21, 0,19, 0.00,60.00,SummerDesignDay
243,26.877440396781379
283,23.999199504059147
323,23.99951803448866
2,1, 7,21, 0,20, 0.00,10.00,SummerDesignDay
8,11.563977235983597
10,5393874.525323272
580,0.0
2,1, 7,21, 0,20,10.00,20.00,SummerDesignDay
8,11.4640075015588
10,5299304.490015754
580,0.0
2,1, 7,21, 0,20,20.00,30.00,SummerDesignDay
8,11.363658737456776
10,5197245.980396298
580,0.0
2,1, 7,21, 0,20,30.00,40.00,SummerDesignDay
8,11.262954363511572
10,5089499.898157993
580,0.0
2,1, 7,21, 0,20,40.00,50.00,SummerDesignDay
8,11.161866330679086
10,4975940.094093585
580,0.0
2,1, 7,21, 0,20,50.00,60.00,SummerDesignDay
8,11.060418956681522
10,4855107.565175104
580,0.0
2,1, 7,21, 0,20, 0.00,60.00,SummerDesignDay
243,26.346668458690734
283,23.998674653003325
323,23.999025169978507
2,1, 7,21, 0,21, 0.00,10.00,SummerDesignDay
8,10.977131286846806
10,4742210.948687791
580,0.0
2,1, 7,21, 0,21,10.00,20.00,SummerDesignDay
8,10.893588371131973
10,4628305.810034131
580,0.0
2,1, 7,21, 0,21,20.00,30.00,SummerDesignDay
8,10.809795547365976
10,4518374.299093132
580,0.0
2,1, 7,21, 0,21,30.00,40.00,SummerDesignDay
8,10.725757967997679
10,4404233.011598059
580,0.0
2,1, 7,21, 0,21,40.00,50.00,SummerDesignDay
8,10.641455374902039
10,4365429.177646101
580,0.0
2,1, 7,21, 0,21,50.00,60.00,SummerDesignDay
8,10.5568960542249
10,4357478.228672801
580,0.0
2,1, 7,21, 0,21, 0.00,60.00,SummerDesignDay
243,25.83285834082514
283,23.97011159605847
323,23.998843595778607
2,1, 7,21, 0,22, 0.00,10.00,SummerDesignDay
8,10.472075212813188
10,4349557.487183933
580,0.0
2,1, 7,21, 0,22,10.00,20.00,SummerDesignDay
8,10.386998798904175
10,4341612.48052601
580,0.0
2,1, 7,21, 0,22,20.00,30.00,SummerDesignDay
8,10.30167171596391
10,4333591.737764868
580,0.0
2,1, 7,21, 0,22,30.00,40.00,SummerDesignDay
8,10.216073757639599
10,4325473.163878567
580,0.0
2,1, 7,21, 0,22,40.00,50.00,SummerDesignDay
8,10.130209237813493
10,4317252.901824156
580,0.0
2,1, 7,21, 0,22,50.00,60.00,SummerDesignDay
8,10.04408463813862
10,4308929.747011116
580,0.0
2,1, 7,21, 0,22, 0.00,60.00,SummerDesignDay
243,25.382537518080374
283,23.46000175799648
323,23.998850216330824
2,1, 7,21, 0,23, 0.00,10.00,SummerDesignDay
8,9.976916887099673
10,4281885.58177681
580,0.0
2,1, 7,21, 0,23,10.00,20.00,SummerDesignDay
8,9.909588076458509
10,4274038.484212756
580,0.0
2,1, 7,21, 0,23,20.00,30.00,SummerDesignDay
8,9.842097633454163
10,4266297.8622761969
580,0.0
2,1, 7,21, 0,23,30.00,40.00,SummerDesignDay
8,9.77444528670805
10,4258489.074787161
580,0.0
2,1, 7,21, 0,23,40.00,50.00,SummerDesignDay
8,9.706630051061567
10,4250707.57114482
580,0.0
2,1, 7,21, 0,23,50.00,60.00,SummerDesignDay
8,9.638655537901255
10,4242967.491216438
580,0.0
2,1, 7,21, 0,23, 0.00,60.00,SummerDesignDay
243,25.136351931453036
283,22.638776149825863
323,23.999097145583066
2,1, 7,21, 0,24, 0.00,10.00,SummerDesignDay
8,9.570513192961173
10,4221328.028092738
580,0.0
2,1, 7,21, 0,24,10.00,20.00,SummerDesignDay
8,9.502206337774363
10,4212956.559564171
580,0.0
2,1, 7,21, 0,24,20.00,30.00,SummerDesignDay
8,9.433734346347242
10,4204697.557169351
580,407805.34749809306
2,1, 7,21, 0,24,30.00,40.00,SummerDesignDay
8,9.365096812375848
10,4196406.394748048
580,518939.13423245798
2,1, 7,21, 0,24,40.00,50.00,SummerDesignDay
8,9.296293065048893
10,4188207.369883027
580,776448.8995339885
2,1, 7,21, 0,24,50.00,60.00,SummerDesignDay
8,9.227322555488419
10,4180134.8877932208
580,1014023.024019973
2,1, 7,21, 0,24, 0.00,60.00,SummerDesignDay
243,24.901890764877718
283,22.04437392691648
323,23.999415527931416
3,1, 7,21, 0,SummerDesignDay
244,25.068584117320119,21.818196151339593,16,20,28.539459187629359, 6,20
284,31.341174793702736,27.674152000157567,10,60,38.009600381236378, 6,10
324,29.37413542358502,27.574355306862665,10,40,31.867853940919074, 7,10
4,1, 7
7,19.677999999999995,12.999999999999999,21, 5,60,27.4,21,14,60
1,BANFF CS ANN HTG 99.6% CONDNS DB,  51.19,-115.55,  -7.00,1396.90
2,1,12,21, 0, 1, 0.00,10.00,WinterDesignDay
8,-30.3
10,4036165.9615972915
580,65614860.10563578
2,1,12,21, 0, 1,10.00,20.00,WinterDesignDay
8,-30.3
10,4036165.9615972915
580,65608781.15272215
2,1,12,21, 0, 1,20.00,30.00,WinterDesignDay
8,-30.3
10,4036165.9615972915
580,65599744.68658163
2,1,12,21, 0, 1,30.00,40.00,WinterDesignDay
8,-30.3
10,4036165.9615972915
580,65590005.2393352
2,1,12,21, 0, 1,40.00,50.00,WinterDesignDay
8,-30.3
10,4036165.9615972915
580,65579865.62278189
2,1,12,21, 0, 1,50.00,60.00,WinterDesignDay
8,-30.3
10,4036165.9615972915
580,65569515.234901998
2,1,12,21, 0, 1, 0.00,60.00,WinterDesignDay
243,14.050426859665267
283,22.000377413468788
323,22.00011714821459
2,1,12,21, 0, 2, 0.00,10.00,WinterDesignDay
8,-30.3
10,2397887.2494743976
580,66830175.34596502
2,1,12,21, 0, 2,10.00,20.00,WinterDesignDay
8,-30.3
10,2397887.2494743976
580,66928488.10044598
2,1,12,21, 0, 2,20.00,30.00,WinterDesignDay
8,-30.3
10,2397887.2494743976
580,66969903.88392204
2,1,12,21, 0, 2,30.00,40.00,WinterDesignDay
8,-30.3
10,2397887.2494743976
580,67000093.74866811
2,1,12,21, 0, 2,40.00,50.00,WinterDesignDay
8,-30.3
10,2397887.2494743976
580,67021922.10287913
2,1,12,21, 0, 2,50.00,60.00,WinterDesignDay
8,-30.3
10,2397887.2494743976
580,67037940.98487839
2,1,12,21, 0, 2, 0.00,60.00,WinterDesignDay
243,14.088780678227158
283,22.0002421089133
323,22.00013420956016
2,1,12,21, 0, 3, 0.00,10.00,WinterDesignDay
8,-30.3
10,759608.5373515032
580,51835919.00738471
2,1,12,21, 0, 3,10.00,20.00,WinterDesignDay
8,-30.3
10,759608.5373515032
580,54482409.51510683
2,1,12,21, 0, 3,20.00,30.00,WinterDesignDay
8,-30.3
10,759608.5373515032
580,56288788.77449332
2,1,12,21, 0, 3,30.00,40.00,WinterDesignDay
8,-30.3
10,759608.5373515032
580,56972690.37759014
2,1,12,21, 0, 3,40.00,50.00,WinterDesignDay
8,-30.3
10,759608.5373515032
580,57362265.180603388
2,1,12,21, 0, 3,50.00,60.00,WinterDesignDay
8,-30.3
10,759608.5373515032
580,57503369.64322449
2,1,12,21, 0, 3, 0.00,60.00,WinterDesignDay
243,14.087064402627812
283,18.19327083225748
323,18.45418824513623
2,1,12,21, 0, 4, 0.00,10.00,WinterDesignDay
8,-30.3
10,759608.5373515032
580,57651122.244414459
2,1,12,21, 0, 4,10.00,20.00,WinterDesignDay
8,-30.3
10,759608.5373515032
580,57744101.45920464
2,1,12,21, 0, 4,20.00,30.00,WinterDesignDay
8,-30.3
10,759608.5373515032
580,57823490.66624898
2,1,12,21, 0, 4,30.00,40.00,WinterDesignDay
8,-30.3
10,759608.5373515032
580,57895785.79854313
2,1,12,21, 0, 4,40.00,50.00,WinterDesignDay
8,-30.3
10,759608.5373515032
580,57960127.1170836
2,1,12,21, 0, 4,50.00,60.00,WinterDesignDay
8,-30.3
10,759608.5373515032
580,58020027.43903766
2,1,12,21, 0, 4, 0.00,60.00,WinterDesignDay
243,13.941644745742025
283,18.000001495805493
323,18.00000148085513
2,1,12,21, 0, 5, 0.00,10.00,WinterDesignDay
8,-30.3
10,759608.5373515032
580,58077346.978408809
2,1,12,21, 0, 5,10.00,20.00,WinterDesignDay
8,-30.3
10,759608.5373515032
580,58131569.79358142
2,1,12,21, 0, 5,20.00,30.00,WinterDesignDay
8,-30.3
10,759608.5373515032
580,58182657.97593792
2,1,12,21, 0, 5,30.00,40.00,WinterDesignDay
8,-30.3
10,759608.5373515032
580,58231900.519214529
2,1,12,21, 0, 5,40.00,50.00,WinterDesignDay
8,-30.3
10,759608.5373515032
580,58280583.04438399
2,1,12,21, 0, 5,50.00,60.00,WinterDesignDay
8,-30.3
10,759608.5373515032
580,58328251.524144489
2,1,12,21, 0, 5, 0.00,60.00,WinterDesignDay
243,13.70288931892483
283,18.000000039788849
323,18.000000991581378
2,1,12,21, 0, 6, 0.00,10.00,WinterDesignDay
8,-30.3
10,759608.5373515032
580,58375024.260029409
2,1,12,21, 0, 6,10.00,20.00,WinterDesignDay
8,-30.3
10,759608.5373515032
580,58420941.493104819
2,1,12,21, 0, 6,20.00,30.00,WinterDesignDay
8,-30.3
10,759608.5373515032
580,58465929.10326743
2,1,12,21, 0, 6,30.00,40.00,WinterDesignDay
8,-30.3
10,759608.5373515032
580,58510697.5717678
2,1,12,21, 0, 6,40.00,50.00,WinterDesignDay
8,-30.3
10,759608.5373515032
580,58557383.57007834
2,1,12,21, 0, 6,50.00,60.00,WinterDesignDay
8,-30.3
10,759608.5373515032
580,58604142.027617719
2,1,12,21, 0, 6, 0.00,60.00,WinterDesignDay
243,13.457836443225418
283,18.000000000997824
323,18.00000033809611
2,1,12,21, 0, 7, 0.00,10.00,WinterDesignDay
8,-30.3
10,759608.5373515032
580,58651006.59748498
2,1,12,21, 0, 7,10.00,20.00,WinterDesignDay
8,-30.3
10,759608.5373515032
580,58697914.86675306
2,1,12,21, 0, 7,20.00,30.00,WinterDesignDay
8,-30.3
10,759608.5373515032
580,58744817.7246058
2,1,12,21, 0, 7,30.00,40.00,WinterDesignDay
8,-30.3
10,759608.5373515032
580,58791676.0791086
2,1,12,21, 0, 7,40.00,50.00,WinterDesignDay
8,-30.3
10,759608.5373515032
580,58838457.24742093
2,1,12,21, 0, 7,50.00,60.00,WinterDesignDay
8,-30.3
10,759608.5373515032
580,58885132.84405878
2,1,12,21, 0, 7, 0.00,60.00,WinterDesignDay
243,13.223713407374083
283,18.00000000002487
323,18.00000010137843
2,1,12,21, 0, 8, 0.00,10.00,WinterDesignDay
8,-30.3
10,759608.5373515032
580,58931677.58317842
2,1,12,21, 0, 8,10.00,20.00,WinterDesignDay
8,-30.3
10,759608.5373515032
580,58978068.579589817
2,1,12,21, 0, 8,20.00,30.00,WinterDesignDay
8,-30.3
10,759608.5373515032
580,59024284.92188938
2,1,12,21, 0, 8,30.00,40.00,WinterDesignDay
8,-30.3
10,759608.5373515032
580,59070307.39672507
2,1,12,21, 0, 8,40.00,50.00,WinterDesignDay
8,-30.3
10,759608.5373515032
580,59116118.298794697
2,1,12,21, 0, 8,50.00,60.00,WinterDesignDay
8,-30.3
10,759608.5373515032
580,59161701.29060298
2,1,12,21, 0, 8, 0.00,60.00,WinterDesignDay
243,13.003576936069626
283,18.00000000000065
323,18.00000003044355
2,1,12,21, 0, 9, 0.00,10.00,WinterDesignDay
8,-30.3
10,766070.4152156566
580,68356636.6168206
2,1,12,21, 0, 9,10.00,20.00,WinterDesignDay
8,-30.3
10,759608.5373515032
580,61119140.56573603
2,1,12,21, 0, 9,20.00,30.00,WinterDesignDay
8,-30.3
10,759608.5373515032
580,66597136.29022776
2,1,12,21, 0, 9,30.00,40.00,WinterDesignDay
8,-30.3
10,759608.5373515032
580,65260274.717947889
2,1,12,21, 0, 9,40.00,50.00,WinterDesignDay
8,-30.3
10,759608.5373515032
580,65170160.76353164
2,1,12,21, 0, 9,50.00,60.00,WinterDesignDay
8,-30.3
10,759608.5373515032
580,65125332.97160431
2,1,12,21, 0, 9, 0.00,60.00,WinterDesignDay
243,12.809533246216765
283,20.002023731875736
323,19.977695399954074
2,1,12,21, 0,10, 0.00,10.00,WinterDesignDay
8,-30.3
10,2404349.127338551
580,73813541.53453523
2,1,12,21, 0,10,10.00,20.00,WinterDesignDay
8,-30.3
10,2397887.2494743976
580,66895788.691338557
2,1,12,21, 0,10,20.00,30.00,WinterDesignDay
8,-30.3
10,2397887.2494743976
580,71520797.77717528
2,1,12,21, 0,10,30.00,40.00,WinterDesignDay
8,-30.3
10,2397887.2494743976
580,70310675.7979754
2,1,12,21, 0,10,40.00,50.00,WinterDesignDay
8,-30.3
10,2397887.2494743976
580,70064549.65966012
2,1,12,21, 0,10,50.00,60.00,WinterDesignDay
8,-30.3
10,2397887.2494743976
580,69926503.5336117
2,1,12,21, 0,10, 0.00,60.00,WinterDesignDay
243,12.696177382254187
283,21.987930481503125
323,21.973005789518454
2,1,12,21, 0,11, 0.00,10.00,WinterDesignDay
8,-30.3
10,3217026.605535844
580,69172213.2775372
2,1,12,21, 0,11,10.00,20.00,WinterDesignDay
8,-30.3
10,3217026.605535844
580,69027858.73136015
2,1,12,21, 0,11,20.00,30.00,WinterDesignDay
8,-30.3
10,3217026.605535844
580,68928460.95219815
2,1,12,21, 0,11,30.00,40.00,WinterDesignDay
8,-30.3
10,3217026.605535844
580,68844704.57340865
2,1,12,21, 0,11,40.00,50.00,WinterDesignDay
8,-30.3
10,3217026.605535844
580,68772914.64932186
2,1,12,21, 0,11,50.00,60.00,WinterDesignDay
8,-30.3
10,3217026.605535844
580,68709752.24219749
2,1,12,21, 0,11, 0.00,60.00,WinterDesignDay
243,12.729803590833754
283,22.00025009534068
323,22.0001015417963
2,1,12,21, 0,12, 0.00,10.00,WinterDesignDay
8,-30.3
10,4036165.9615972915
580,67615830.9483718
2,1,12,21, 0,12,10.00,20.00,WinterDesignDay
8,-30.3
10,4036165.9615972915
580,67495850.08691727
2,1,12,21, 0,12,20.00,30.00,WinterDesignDay
8,-30.3
10,4036165.9615972915
580,67415170.40782359
2,1,12,21, 0,12,30.00,40.00,WinterDesignDay
8,-30.3
10,4036165.9615972915
580,67344127.84683427
2,1,12,21, 0,12,40.00,50.00,WinterDesignDay
8,-30.3
10,4036165.9615972915
580,67280671.74272627
2,1,12,21, 0,12,50.00,60.00,WinterDesignDay
8,-30.3
10,4036165.9615972915
580,67222693.52891383
2,1,12,21, 0,12, 0.00,60.00,WinterDesignDay
243,12.84899164179655
283,22.00050221838245
323,22.000175068669795
2,1,12,21, 0,13, 0.00,10.00,WinterDesignDay
8,-30.3
10,4036165.9615972915
580,66382262.02807171
2,1,12,21, 0,13,10.00,20.00,WinterDesignDay
8,-30.3
10,4036165.9615972915
580,66308908.14191437
2,1,12,21, 0,13,20.00,30.00,WinterDesignDay
8,-30.3
10,4036165.9615972915
580,66249115.17190381
2,1,12,21, 0,13,30.00,40.00,WinterDesignDay
8,-30.3
10,4036165.9615972915
580,66194098.086554508
2,1,12,21, 0,13,40.00,50.00,WinterDesignDay
8,-30.3
10,4036165.9615972915
580,66142586.34661709
2,1,12,21, 0,13,50.00,60.00,WinterDesignDay
8,-30.3
10,4036165.9615972915
580,66093677.88904754
2,1,12,21, 0,13, 0.00,60.00,WinterDesignDay
243,12.989619197521842
283,22.000828578362776
323,22.00028203061935
2,1,12,21, 0,14, 0.00,10.00,WinterDesignDay
8,-30.3
10,4036165.9615972915
580,66242898.68344407
2,1,12,21, 0,14,10.00,20.00,WinterDesignDay
8,-30.3
10,4036165.9615972915
580,66203477.86481322
2,1,12,21, 0,14,20.00,30.00,WinterDesignDay
8,-30.3
10,4036165.9615972915
580,66162426.07641535
2,1,12,21, 0,14,30.00,40.00,WinterDesignDay
8,-30.3
10,4036165.9615972915
580,66121764.00910589
2,1,12,21, 0,14,40.00,50.00,WinterDesignDay
8,-30.3
10,4036165.9615972915
580,66081640.65678694
2,1,12,21, 0,14,50.00,60.00,WinterDesignDay
8,-30.3
10,4036165.9615972915
580,66042119.798954557
2,1,12,21, 0,14, 0.00,60.00,WinterDesignDay
243,13.131766314945148
283,22.000955522602216
323,22.000347269895007
2,1,12,21, 0,15, 0.00,10.00,WinterDesignDay
8,-30.3
10,4036165.9615972915
580,66591422.209374617
2,1,12,21, 0,15,10.00,20.00,WinterDesignDay
8,-30.3
10,4036165.9615972915
580,66570757.59182824
2,1,12,21, 0,15,20.00,30.00,WinterDesignDay
8,-30.3
10,4036165.9615972915
580,66541789.68773723
2,1,12,21, 0,15,30.00,40.00,WinterDesignDay
8,-30.3
10,4036165.9615972915
580,66511157.61082901
2,1,12,21, 0,15,40.00,50.00,WinterDesignDay
8,-30.3
10,4036165.9615972915
580,66479686.50418183
2,1,12,21, 0,15,50.00,60.00,WinterDesignDay
8,-30.3
10,4036165.9615972915
580,66447863.94116334
2,1,12,21, 0,15, 0.00,60.00,WinterDesignDay
243,13.263401515280167
283,22.00077139698232
323,22.000309688479154
2,1,12,21, 0,16, 0.00,10.00,WinterDesignDay
8,-30.3
10,4036165.9615972915
580,67004129.52395976
2,1,12,21, 0,16,10.00,20.00,WinterDesignDay
8,-30.3
10,4036165.9615972915
580,66990061.9930963
2,1,12,21, 0,16,20.00,30.00,WinterDesignDay
8,-30.3
10,4036165.9615972915
580,66967208.222294438
2,1,12,21, 0,16,30.00,40.00,WinterDesignDay
8,-30.3
10,4036165.9615972915
580,66942445.046807248
2,1,12,21, 0,16,40.00,50.00,WinterDesignDay
8,-30.3
10,4036165.9615972915
580,66916592.519879769
2,1,12,21, 0,16,50.00,60.00,WinterDesignDay
8,-30.3
10,4036165.9615972915
580,66890185.64435822
2,1,12,21, 0,16, 0.00,60.00,WinterDesignDay
243,13.379069182111989
283,22.000438860704205
323,22.000203835992776
2,1,12,21, 0,17, 0.00,10.00,WinterDesignDay
8,-30.3
10,4036165.9615972915
580,66863619.167378257
2,1,12,21, 0,17,10.00,20.00,WinterDesignDay
8,-30.3
10,4036165.9615972915
580,66836977.13219062
2,1,12,21, 0,17,20.00,30.00,WinterDesignDay
8,-30.3
10,4036165.9615972915
580,66810518.52888049
2,1,12,21, 0,17,30.00,40.00,WinterDesignDay
8,-30.3
10,4036165.9615972915
580,66784271.51690994
2,1,12,21, 0,17,40.00,50.00,WinterDesignDay
8,-30.3
10,4036165.9615972915
580,66758284.25114061
2,1,12,21, 0,17,50.00,60.00,WinterDesignDay
8,-30.3
10,4036165.9615972915
580,66732607.00479856